[Molden Format]
[Title]
 Generated by Molden2AIM, Version 5.1.1 (03/09/2024)           Time: Tue Jun 04 12:37:28 2024

[Atoms] AU
  F      1    9        0.0000000000        0.0000000000       -2.5385017427
  Cu     2   29        0.0000000000        0.0000000000        0.7589380784
[GTO]
    1    0
 S    6  1.0
    0.3572167262D+05   -0.9245104069D-03
    0.5293735790D+04   -0.5070078727D-02
    0.1212123390D+04   -0.2367075656D-01
    0.3429128636D+03   -0.9319179295D-01
    0.1124260358D+03   -0.2909282673D+00
    0.4091754528D+02   -0.6759932401D+00
 S    2  1.0
    0.1626219874D+02   -0.6211758844D+00
    0.6651772291D+01   -0.4128855455D+00
 S    1  1.0
    0.1555533379D+01    0.1000000000D+01
 S    1  1.0
    0.6173685080D+00    0.1000000000D+01
 S    1  1.0
    0.2400998300D+00    0.1000000000D+01
 P    4  1.0
    0.8039333786D+02    0.1249493795D-01
    0.1859286589D+02    0.8599431881D-01
    0.5686484762D+01    0.3265448807D+00
    0.1951284604D+01    0.6993267175D+00
 P    1  1.0
    0.6698295681D+00    0.1000000000D+01
 P    1  1.0
    0.2165005206D+00    0.1000000000D+01
 D    1  1.0
    0.3107000000D+01    0.1000000000D+01
 D    1  1.0
    0.8550000000D+00    0.1000000000D+01

    2    0
 S    8  1.0
    0.7933818481D+06    0.6445089089D-03
    0.9753694908D+05    0.2664992676D-02
    0.1942406865D+05    0.1007315349D-01
    0.4991573673D+04    0.3564562979D-01
    0.1510962405D+04    0.1130392063D+00
    0.5142413102D+03    0.2809282943D+00
    0.1898744611D+03    0.4472626178D+00
    0.7170988791D+02    0.2657051261D+00
 S    4  1.0
    0.4459966190D+03   -0.2336283935D-01
    0.1348353991D+03   -0.1113471660D+00
    0.2154910428D+02    0.5434853383D+00
    0.9135941384D+01    0.5418284895D+00
 S    2  1.0
    0.1418383823D+02   -0.3692067894D+00
    0.2309029278D+01    0.1166989557D+01
 S    1  1.0
    0.9259693560D+00    0.1000000000D+01
 S    1  1.0
    0.1157683849D+00    0.1000000000D+01
 S    1  1.0
    0.4106314746D-01    0.1000000000D+01
 P    1  1.0
    0.5813664962D+04    0.1000000000D+01
 P    1  1.0
    0.2619790671D+04    0.1000000000D+01
 P    1  1.0
    0.5658753027D+03    0.1000000000D+01
 P    1  1.0
    0.1733306697D+03    0.1000000000D+01
 P    1  1.0
    0.6273718602D+02    0.1000000000D+01
 P    1  1.0
    0.2452632590D+02    0.1000000000D+01
 P    1  1.0
    0.9812004438D+01    0.1000000000D+01
 P    1  1.0
    0.3839411311D+02    0.1000000000D+01
 P    1  1.0
    0.5244268998D+01    0.1000000000D+01
 P    1  1.0
    0.2061807946D+01    0.1000000000D+01
 P    1  1.0
    0.7564005785D+00    0.1000000000D+01
 P    1  1.0
    0.2711000000D+00    0.1000000000D+01
 P    1  1.0
    0.9954000000D-01    0.1000000000D+01
 D    1  1.0
    0.1428926860D+04    0.1000000000D+01
 D    1  1.0
    0.4917224083D+03    0.1000000000D+01
 D    1  1.0
    0.1692115486D+03    0.1000000000D+01
 D    1  1.0
    0.8422018084D+02    0.1000000000D+01
 D    1  1.0
    0.2311937859D+02    0.1000000000D+01
 D    1  1.0
    0.7875730504D+01    0.1000000000D+01
 D    1  1.0
    0.2839777505D+01    0.1000000000D+01
 D    1  1.0
    0.9586144102D+00    0.1000000000D+01
 D    1  1.0
    0.2837648359D+00    0.1000000000D+01
 D    1  1.0
    0.8500000000D-01    0.1000000000D+01
 F    1  1.0
    0.1209000000D+01    0.1000000000D+01
 F    1  1.0
    0.4936000000D+01    0.1000000000D+01
 G    1  1.0
    0.3245000000D+01    0.1000000000D+01

[MO]
 Sym= 1.1
 Ene=          0.00000000
 Spin= Alpha
 Occup=        2.00000300
    1        0.4261995531
    2        0.6542148441
    3       -0.0199766669
    4        0.0166460946
    5       -0.0019882734
    6        0.0000000000
    7        0.0000000000
    8       -0.0016573984
    9        0.0000000000
   10        0.0000000000
   11       -0.0001551410
   12        0.0000000000
   13        0.0000000000
   14       -0.0016146932
   15       -0.0000107490
   16       -0.0000107490
   17        0.0000214979
   18        0.0000000000
   19        0.0000000000
   20        0.0000000000
   21       -0.0000150999
   22       -0.0000150999
   23        0.0000301998
   24        0.0000000000
   25        0.0000000000
   26        0.0000000000
   27       -0.0070387466
   28        0.0216384240
   29        0.0004794973
   30       -0.0003966608
   31        0.0008644476
   32        0.0002829385
   33        0.0000000000
   34        0.0000000000
   35       -0.0000102331
   36        0.0000000000
   37        0.0000000000
   38       -0.0000732279
   39        0.0000000000
   40        0.0000000000
   41       -0.0006587506
   42        0.0000000000
   43        0.0000000000
   44       -0.0031007538
   45        0.0000000000
   46        0.0000000000
   47       -0.0094585543
   48        0.0000000000
   49        0.0000000000
   50       -0.0160331672
   51        0.0000000000
   52        0.0000000000
   53       -0.0097136961
   54        0.0000000000
   55        0.0000000000
   56        0.0000635347
   57        0.0000000000
   58        0.0000000000
   59       -0.0003067946
   60        0.0000000000
   61        0.0000000000
   62       -0.0005222277
   63        0.0000000000
   64        0.0000000000
   65        0.0001982864
   66        0.0000000000
   67        0.0000000000
   68       -0.0002759130
   69        0.0000000000
   70        0.0000000000
   71       -0.0012403867
   72       -0.0000000195
   73       -0.0000000195
   74        0.0000000390
   75        0.0000000000
   76        0.0000000000
   77        0.0000000000
   78        0.0000001120
   79        0.0000001120
   80       -0.0000002241
   81        0.0000000000
   82        0.0000000000
   83        0.0000000000
   84       -0.0000005217
   85       -0.0000005217
   86        0.0000010434
   87        0.0000000000
   88        0.0000000000
   89        0.0000000000
   90        0.0000013870
   91        0.0000013870
   92       -0.0000027739
   93        0.0000000000
   94        0.0000000000
   95        0.0000000000
   96       -0.0000016873
   97       -0.0000016873
   98        0.0000033746
   99        0.0000000000
  100        0.0000000000
  101        0.0000000000
  102        0.0000185031
  103        0.0000185031
  104       -0.0000370062
  105        0.0000000000
  106        0.0000000000
  107        0.0000000000
  108       -0.0000457751
  109       -0.0000457751
  110        0.0000915502
  111        0.0000000000
  112        0.0000000000
  113        0.0000000000
  114        0.0000338314
  115        0.0000338314
  116       -0.0000676628
  117        0.0000000000
  118        0.0000000000
  119        0.0000000000
  120       -0.0000757269
  121       -0.0000757269
  122        0.0001514537
  123        0.0000000000
  124        0.0000000000
  125        0.0000000000
  126       -0.0003051450
  127       -0.0003051450
  128        0.0006102900
  129        0.0000000000
  130        0.0000000000
  131        0.0000000000
  132        0.0000000000
  133        0.0000000000
  134        0.0000882454
  135        0.0000000000
  136        0.0000000000
  137       -0.0000591968
  138        0.0000000000
  139        0.0000000000
  140       -0.0000591968
  141        0.0000000000
  142        0.0000000000
  143        0.0000000000
  144       -0.0000255284
  145        0.0000000000
  146        0.0000000000
  147        0.0000171250
  148        0.0000000000
  149        0.0000000000
  150        0.0000171250
  151        0.0000000000
  152       -0.0000048991
  153       -0.0000048991
  154       -0.0000130643
  155        0.0000000000
  156        0.0000000000
  157        0.0000000000
  158        0.0000000000
  159        0.0000000000
  160        0.0000000000
  161       -0.0000028686
  162        0.0000114745
  163        0.0000114745
  164        0.0000000000
  165        0.0000000000
  166        0.0000000000
 Sym= 2.1
 Ene=          0.00000000
 Spin= Alpha
 Occup=        2.00000100
    1       -0.0088360189
    2       -0.0135827687
    3        0.0003387134
    4        0.0000255355
    5       -0.0007646522
    6        0.0000000000
    7        0.0000000000
    8        0.0003927944
    9        0.0000000000
   10        0.0000000000
   11        0.0002811066
   12        0.0000000000
   13        0.0000000000
   14        0.0000446703
   15        0.0000305569
   16        0.0000305569
   17       -0.0000611138
   18        0.0000000000
   19        0.0000000000
   20        0.0000000000
   21       -0.0000413882
   22       -0.0000413882
   23        0.0000827764
   24        0.0000000000
   25        0.0000000000
   26        0.0000000000
   27       -0.3376201949
   28        1.0461742094
   29        0.0254912841
   30       -0.0154332903
   31        0.0029025023
   32       -0.0006075874
   33        0.0000000000
   34        0.0000000000
   35       -0.0000010726
   36        0.0000000000
   37        0.0000000000
   38       -0.0000079272
   39        0.0000000000
   40        0.0000000000
   41       -0.0000704222
   42        0.0000000000
   43        0.0000000000
   44       -0.0003391453
   45        0.0000000000
   46        0.0000000000
   47       -0.0010036295
   48        0.0000000000
   49        0.0000000000
   50       -0.0015797420
   51        0.0000000000
   52        0.0000000000
   53       -0.0008521692
   54        0.0000000000
   55        0.0000000000
   56       -0.0000938778
   57        0.0000000000
   58        0.0000000000
   59        0.0000946792
   60        0.0000000000
   61        0.0000000000
   62       -0.0000743278
   63        0.0000000000
   64        0.0000000000
   65        0.0002279190
   66        0.0000000000
   67        0.0000000000
   68       -0.0003549411
   69        0.0000000000
   70        0.0000000000
   71       -0.0003549963
   72        0.0000000049
   73        0.0000000049
   74       -0.0000000098
   75        0.0000000000
   76        0.0000000000
   77        0.0000000000
   78        0.0000006278
   79        0.0000006278
   80       -0.0000012555
   81        0.0000000000
   82        0.0000000000
   83        0.0000000000
   84        0.0000013572
   85        0.0000013572
   86       -0.0000027144
   87        0.0000000000
   88        0.0000000000
   89        0.0000000000
   90        0.0000152701
   91        0.0000152701
   92       -0.0000305401
   93        0.0000000000
   94        0.0000000000
   95        0.0000000000
   96        0.0001366624
   97        0.0001366624
   98       -0.0002733247
   99        0.0000000000
  100        0.0000000000
  101        0.0000000000
  102        0.0003696458
  103        0.0003696458
  104       -0.0007392917
  105        0.0000000000
  106        0.0000000000
  107        0.0000000000
  108        0.0004869910
  109        0.0004869910
  110       -0.0009739820
  111        0.0000000000
  112        0.0000000000
  113        0.0000000000
  114        0.0005646313
  115        0.0005646313
  116       -0.0011292627
  117        0.0000000000
  118        0.0000000000
  119        0.0000000000
  120        0.0001637239
  121        0.0001637239
  122       -0.0003274478
  123        0.0000000000
  124        0.0000000000
  125        0.0000000000
  126       -0.0000007575
  127       -0.0000007575
  128        0.0000015149
  129        0.0000000000
  130        0.0000000000
  131        0.0000000000
  132        0.0000000000
  133        0.0000000000
  134       -0.0000361280
  135        0.0000000000
  136        0.0000000000
  137        0.0000242354
  138        0.0000000000
  139        0.0000000000
  140        0.0000242354
  141        0.0000000000
  142        0.0000000000
  143        0.0000000000
  144        0.0000059816
  145        0.0000000000
  146        0.0000000000
  147       -0.0000040126
  148        0.0000000000
  149        0.0000000000
  150       -0.0000040126
  151        0.0000000000
  152       -0.0000064215
  153       -0.0000064215
  154       -0.0000171240
  155        0.0000000000
  156        0.0000000000
  157        0.0000000000
  158        0.0000000000
  159        0.0000000000
  160        0.0000000000
  161       -0.0000037600
  162        0.0000150402
  163        0.0000150402
  164        0.0000000000
  165        0.0000000000
  166        0.0000000000
 Sym= 3.1
 Ene=          0.00000000
 Spin= Alpha
 Occup=        2.00000000
    1        0.0140934161
    2        0.0215826817
    3       -0.0008815202
    4        0.0001632872
    5        0.0003248286
    6        0.0000000000
    7        0.0000000000
    8       -0.0003414001
    9        0.0000000000
   10        0.0000000000
   11       -0.0002467513
   12        0.0000000000
   13        0.0000000000
   14        0.0003333579
   15       -0.0000179431
   16       -0.0000179431
   17        0.0000358861
   18        0.0000000000
   19        0.0000000000
   20        0.0000000000
   21        0.0000143150
   22        0.0000143150
   23       -0.0000286301
   24        0.0000000000
   25        0.0000000000
   26        0.0000000000
   27        0.0039438321
   28        0.0047463061
   29       -0.0005949515
   30       -0.0003843082
   31       -0.0010434401
   32        0.0001558366
   33        0.0000000000
   34        0.0000000000
   35        0.0003067089
   36        0.0000000000
   37        0.0000000000
   38        0.0021891765
   39        0.0000000000
   40        0.0000000000
   41        0.0197165426
   42        0.0000000000
   43        0.0000000000
   44        0.0926863709
   45        0.0000000000
   46        0.0000000000
   47        0.2835005828
   48        0.0000000000
   49        0.0000000000
   50        0.4817146938
   51        0.0000000000
   52        0.0000000000
   53        0.2879079928
   54        0.0000000000
   55        0.0000000000
   56       -0.0038218387
   57        0.0000000000
   58        0.0000000000
   59        0.0164644727
   60        0.0000000000
   61        0.0000000000
   62        0.0180613053
   63        0.0000000000
   64        0.0000000000
   65       -0.0037672883
   66        0.0000000000
   67        0.0000000000
   68        0.0030067231
   69        0.0000000000
   70        0.0000000000
   71       -0.0006876477
   72        0.0000000267
   73        0.0000000267
   74       -0.0000000534
   75        0.0000000000
   76        0.0000000000
   77        0.0000000000
   78       -0.0000006411
   79       -0.0000006411
   80        0.0000012822
   81        0.0000000000
   82        0.0000000000
   83        0.0000000000
   84       -0.0000000781
   85       -0.0000000781
   86        0.0000001563
   87        0.0000000000
   88        0.0000000000
   89        0.0000000000
   90       -0.0000145865
   91       -0.0000145865
   92        0.0000291731
   93        0.0000000000
   94        0.0000000000
   95        0.0000000000
   96       -0.0001148537
   97       -0.0001148537
   98        0.0002297074
   99        0.0000000000
  100        0.0000000000
  101        0.0000000000
  102       -0.0002146065
  103       -0.0002146065
  104        0.0004292131
  105        0.0000000000
  106        0.0000000000
  107        0.0000000000
  108       -0.0001487738
  109       -0.0001487738
  110        0.0002975475
  111        0.0000000000
  112        0.0000000000
  113        0.0000000000
  114       -0.0002432118
  115       -0.0002432118
  116        0.0004864235
  117        0.0000000000
  118        0.0000000000
  119        0.0000000000
  120        0.0001126841
  121        0.0001126841
  122       -0.0002253683
  123        0.0000000000
  124        0.0000000000
  125        0.0000000000
  126       -0.0000727319
  127       -0.0000727319
  128        0.0001454637
  129        0.0000000000
  130        0.0000000000
  131        0.0000000000
  132        0.0000000000
  133        0.0000000000
  134        0.0000412246
  135        0.0000000000
  136        0.0000000000
  137       -0.0000276543
  138        0.0000000000
  139        0.0000000000
  140       -0.0000276543
  141        0.0000000000
  142        0.0000000000
  143        0.0000000000
  144       -0.0000915938
  145        0.0000000000
  146        0.0000000000
  147        0.0000614430
  148        0.0000000000
  149        0.0000000000
  150        0.0000614430
  151        0.0000000000
  152       -0.0000004870
  153       -0.0000004870
  154       -0.0000012985
  155        0.0000000000
  156        0.0000000000
  157        0.0000000000
  158        0.0000000000
  159        0.0000000000
  160        0.0000000000
  161       -0.0000002851
  162        0.0000011405
  163        0.0000011405
  164        0.0000000000
  165        0.0000000000
  166        0.0000000000
 Sym= 4.1
 Ene=          0.00000000
 Spin= Alpha
 Occup=        2.00000000
    1       -0.0000544894
    2       -0.0000704438
    3        0.0000398724
    4       -0.0001181006
    5        0.0003296557
    6        0.0000000000
    7        0.0000000000
    8       -0.0000053142
    9        0.0000000000
   10        0.0000000000
   11        0.0000224966
   12        0.0000000000
   13        0.0000000000
   14        0.0001029588
   15       -0.0000068663
   16       -0.0000068663
   17        0.0000137325
   18        0.0000000000
   19        0.0000000000
   20        0.0000000000
   21        0.0000073835
   22        0.0000073835
   23       -0.0000147669
   24        0.0000000000
   25        0.0000000000
   26        0.0000000000
   27        0.9942168997
   28        0.0178393088
   29       -0.0029000414
   30        0.0018932487
   31       -0.0006540716
   32        0.0002236232
   33        0.0000000000
   34        0.0000000000
   35       -0.0000016805
   36        0.0000000000
   37        0.0000000000
   38       -0.0000118459
   39        0.0000000000
   40        0.0000000000
   41       -0.0001071308
   42        0.0000000000
   43        0.0000000000
   44       -0.0004999568
   45        0.0000000000
   46        0.0000000000
   47       -0.0015566826
   48        0.0000000000
   49        0.0000000000
   50       -0.0026721810
   51        0.0000000000
   52        0.0000000000
   53       -0.0015272371
   54        0.0000000000
   55        0.0000000000
   56        0.0000565383
   57        0.0000000000
   58        0.0000000000
   59       -0.0001368620
   60        0.0000000000
   61        0.0000000000
   62       -0.0000343318
   63        0.0000000000
   64        0.0000000000
   65       -0.0000528876
   66        0.0000000000
   67        0.0000000000
   68        0.0001040236
   69        0.0000000000
   70        0.0000000000
   71        0.0001206791
   72        0.0000000151
   73        0.0000000151
   74       -0.0000000302
   75        0.0000000000
   76        0.0000000000
   77        0.0000000000
   78       -0.0000001402
   79       -0.0000001402
   80        0.0000002804
   81        0.0000000000
   82        0.0000000000
   83        0.0000000000
   84       -0.0000001723
   85       -0.0000001723
   86        0.0000003446
   87        0.0000000000
   88        0.0000000000
   89        0.0000000000
   90       -0.0000015107
   91       -0.0000015107
   92        0.0000030214
   93        0.0000000000
   94        0.0000000000
   95        0.0000000000
   96        0.0000019521
   97        0.0000019521
   98       -0.0000039041
   99        0.0000000000
  100        0.0000000000
  101        0.0000000000
  102       -0.0000051776
  103       -0.0000051776
  104        0.0000103552
  105        0.0000000000
  106        0.0000000000
  107        0.0000000000
  108        0.0000059334
  109        0.0000059334
  110       -0.0000118669
  111        0.0000000000
  112        0.0000000000
  113        0.0000000000
  114       -0.0000199479
  115       -0.0000199479
  116        0.0000398959
  117        0.0000000000
  118        0.0000000000
  119        0.0000000000
  120        0.0000475162
  121        0.0000475162
  122       -0.0000950324
  123        0.0000000000
  124        0.0000000000
  125        0.0000000000
  126        0.0000243628
  127        0.0000243628
  128       -0.0000487255
  129        0.0000000000
  130        0.0000000000
  131        0.0000000000
  132        0.0000000000
  133        0.0000000000
  134        0.0000105526
  135        0.0000000000
  136        0.0000000000
  137       -0.0000070789
  138        0.0000000000
  139        0.0000000000
  140       -0.0000070789
  141        0.0000000000
  142        0.0000000000
  143        0.0000000000
  144       -0.0000028128
  145        0.0000000000
  146        0.0000000000
  147        0.0000018869
  148        0.0000000000
  149        0.0000000000
  150        0.0000018869
  151        0.0000000000
  152       -0.0000001440
  153       -0.0000001440
  154       -0.0000003839
  155        0.0000000000
  156        0.0000000000
  157        0.0000000000
  158        0.0000000000
  159        0.0000000000
  160        0.0000000000
  161       -0.0000000843
  162        0.0000003372
  163        0.0000003372
  164        0.0000000000
  165        0.0000000000
  166        0.0000000000
 Sym= 1.2
 Ene=          0.00000000
 Spin= Alpha
 Occup=        2.00000000
    1        0.0000000000
    2        0.0000000000
    3        0.0000000000
    4        0.0000000000
    5        0.0000000000
    6        0.0001965228
    7        0.0000000000
    8        0.0000000000
    9        0.0000880905
   10        0.0000000000
   11        0.0000000000
   12        0.0001483977
   13        0.0000000000
   14        0.0000000000
   15        0.0000000000
   16        0.0000000000
   17        0.0000000000
   18        0.0000000000
   19        0.0000116811
   20        0.0000000000
   21        0.0000000000
   22        0.0000000000
   23        0.0000000000
   24        0.0000000000
   25       -0.0000509106
   26        0.0000000000
   27        0.0000000000
   28        0.0000000000
   29        0.0000000000
   30        0.0000000000
   31        0.0000000000
   32        0.0000000000
   33        0.0003070437
   34        0.0000000000
   35        0.0000000000
   36        0.0021913291
   37        0.0000000000
   38        0.0000000000
   39        0.0197369077
   40        0.0000000000
   41        0.0000000000
   42        0.0927777824
   43        0.0000000000
   44        0.0000000000
   45        0.2838254125
   46        0.0000000000
   47        0.0000000000
   48        0.4823731728
   49        0.0000000000
   50        0.0000000000
   51        0.2882287690
   52        0.0000000000
   53        0.0000000000
   54       -0.0039233532
   55        0.0000000000
   56        0.0000000000
   57        0.0160682375
   58        0.0000000000
   59        0.0000000000
   60        0.0170324957
   61        0.0000000000
   62        0.0000000000
   63       -0.0036880126
   64        0.0000000000
   65        0.0000000000
   66        0.0023605205
   67        0.0000000000
   68        0.0000000000
   69       -0.0006942327
   70        0.0000000000
   71        0.0000000000
   72        0.0000000000
   73        0.0000000000
   74        0.0000000000
   75        0.0000000000
   76       -0.0000000096
   77        0.0000000000
   78        0.0000000000
   79        0.0000000000
   80        0.0000000000
   81        0.0000000000
   82        0.0000008133
   83        0.0000000000
   84        0.0000000000
   85        0.0000000000
   86        0.0000000000
   87        0.0000000000
   88        0.0000010757
   89        0.0000000000
   90        0.0000000000
   91        0.0000000000
   92        0.0000000000
   93        0.0000000000
   94        0.0000209497
   95        0.0000000000
   96        0.0000000000
   97        0.0000000000
   98        0.0000000000
   99        0.0000000000
  100        0.0001872104
  101        0.0000000000
  102        0.0000000000
  103        0.0000000000
  104        0.0000000000
  105        0.0000000000
  106        0.0002248822
  107        0.0000000000
  108        0.0000000000
  109        0.0000000000
  110        0.0000000000
  111        0.0000000000
  112        0.0000605658
  113        0.0000000000
  114        0.0000000000
  115        0.0000000000
  116        0.0000000000
  117        0.0000000000
  118        0.0001200670
  119        0.0000000000
  120        0.0000000000
  121        0.0000000000
  122        0.0000000000
  123        0.0000000000
  124        0.0000189959
  125        0.0000000000
  126        0.0000000000
  127        0.0000000000
  128        0.0000000000
  129        0.0000000000
  130        0.0000148880
  131        0.0000000000
  132       -0.0000123278
  133        0.0000000000
  134        0.0000000000
  135       -0.0000055132
  136        0.0000000000
  137        0.0000000000
  138        0.0000220527
  139        0.0000000000
  140        0.0000000000
  141        0.0000000000
  142       -0.0000212391
  143        0.0000000000
  144        0.0000000000
  145       -0.0000094984
  146        0.0000000000
  147        0.0000000000
  148        0.0000379937
  149        0.0000000000
  150        0.0000000000
  151        0.0000000000
  152        0.0000000000
  153        0.0000000000
  154        0.0000000000
  155        0.0000000000
  156       -0.0000011367
  157        0.0000000000
  158        0.0000000000
  159        0.0000015155
  160        0.0000000000
  161        0.0000000000
  162        0.0000000000
  163        0.0000000000
  164        0.0000000000
  165       -0.0000005083
  166        0.0000000000
 Sym= 1.3
 Ene=          0.00000000
 Spin= Alpha
 Occup=        2.00000000
    1        0.0000000000
    2        0.0000000000
    3        0.0000000000
    4        0.0000000000
    5        0.0000000000
    6        0.0000000000
    7        0.0001965228
    8        0.0000000000
    9        0.0000000000
   10        0.0000880905
   11        0.0000000000
   12        0.0000000000
   13        0.0001483977
   14        0.0000000000
   15        0.0000000000
   16        0.0000000000
   17        0.0000000000
   18        0.0000000000
   19        0.0000000000
   20        0.0000116811
   21        0.0000000000
   22        0.0000000000
   23        0.0000000000
   24        0.0000000000
   25        0.0000000000
   26       -0.0000509106
   27        0.0000000000
   28        0.0000000000
   29        0.0000000000
   30        0.0000000000
   31        0.0000000000
   32        0.0000000000
   33        0.0000000000
   34        0.0003070437
   35        0.0000000000
   36        0.0000000000
   37        0.0021913291
   38        0.0000000000
   39        0.0000000000
   40        0.0197369077
   41        0.0000000000
   42        0.0000000000
   43        0.0927777824
   44        0.0000000000
   45        0.0000000000
   46        0.2838254125
   47        0.0000000000
   48        0.0000000000
   49        0.4823731728
   50        0.0000000000
   51        0.0000000000
   52        0.2882287690
   53        0.0000000000
   54        0.0000000000
   55       -0.0039233532
   56        0.0000000000
   57        0.0000000000
   58        0.0160682375
   59        0.0000000000
   60        0.0000000000
   61        0.0170324957
   62        0.0000000000
   63        0.0000000000
   64       -0.0036880126
   65        0.0000000000
   66        0.0000000000
   67        0.0023605205
   68        0.0000000000
   69        0.0000000000
   70       -0.0006942327
   71        0.0000000000
   72        0.0000000000
   73        0.0000000000
   74        0.0000000000
   75        0.0000000000
   76        0.0000000000
   77       -0.0000000096
   78        0.0000000000
   79        0.0000000000
   80        0.0000000000
   81        0.0000000000
   82        0.0000000000
   83        0.0000008133
   84        0.0000000000
   85        0.0000000000
   86        0.0000000000
   87        0.0000000000
   88        0.0000000000
   89        0.0000010757
   90        0.0000000000
   91        0.0000000000
   92        0.0000000000
   93        0.0000000000
   94        0.0000000000
   95        0.0000209497
   96        0.0000000000
   97        0.0000000000
   98        0.0000000000
   99        0.0000000000
  100        0.0000000000
  101        0.0001872104
  102        0.0000000000
  103        0.0000000000
  104        0.0000000000
  105        0.0000000000
  106        0.0000000000
  107        0.0002248822
  108        0.0000000000
  109        0.0000000000
  110        0.0000000000
  111        0.0000000000
  112        0.0000000000
  113        0.0000605658
  114        0.0000000000
  115        0.0000000000
  116        0.0000000000
  117        0.0000000000
  118        0.0000000000
  119        0.0001200670
  120        0.0000000000
  121        0.0000000000
  122        0.0000000000
  123        0.0000000000
  124        0.0000000000
  125        0.0000189959
  126        0.0000000000
  127        0.0000000000
  128        0.0000000000
  129        0.0000000000
  130        0.0000000000
  131        0.0000148880
  132        0.0000000000
  133       -0.0000123278
  134        0.0000000000
  135        0.0000000000
  136       -0.0000055132
  137        0.0000000000
  138        0.0000000000
  139        0.0000220527
  140        0.0000000000
  141        0.0000000000
  142        0.0000000000
  143       -0.0000212391
  144        0.0000000000
  145        0.0000000000
  146       -0.0000094984
  147        0.0000000000
  148        0.0000000000
  149        0.0000379937
  150        0.0000000000
  151        0.0000000000
  152        0.0000000000
  153        0.0000000000
  154        0.0000000000
  155        0.0000000000
  156        0.0000000000
  157        0.0000000000
  158       -0.0000011367
  159        0.0000000000
  160        0.0000015155
  161        0.0000000000
  162        0.0000000000
  163        0.0000000000
  164       -0.0000005083
  165        0.0000000000
  166        0.0000000000
 Sym= 5.1
 Ene=          0.00000000
 Spin= Alpha
 Occup=        1.99484800
    1        0.0023401985
    2        0.0057886852
    3        0.0071354318
    4        0.0139431293
    5        0.0001364540
    6        0.0000000000