This is a DKH4/BHandHLYP calculation                                    
SP        RBHandHLYP                                                  Gen                 
Number of atoms                            I                2
Info1-9                                    I   N=           9
         127         122           0           0           0         110
           1          18        -302
Full Title                                 C   N=           3
This is a DKH4/BHandHLYP calculation
Route                                      C   N=           3
# bhandhlyp/gen 5d 7f int=dkhso     
Charge                                     I                0
Multiplicity                               I                1
Number of electrons                        I               38
Number of alpha electrons                  I               19
Number of beta electrons                   I               19
Number of basis functions                  I              142
Number of independent functions            I              142
Number of point charges in /Mol/           I                0
Number of translation vectors              I                0
Atomic numbers                             I   N=           2
           9          29
Nuclear charges                            R   N=           2
  9.00000000E+00  2.90000000E+01
Current cartesian coordinates              R   N=           6
  0.00000000E+00  0.00000000E+00 -2.51646722E+00  0.00000000E+00  0.00000000E+00
  7.80972586E-01
Number of symbols in /Mol/                 I                0
Int Atom Types                             I   N=           2
           0           0
Force Field                                I                0
Atom Types                                 C   N=           2
                        
MM charges                                 R   N=           2
  0.00000000E+00  0.00000000E+00
Integer atomic weights                     I   N=           2
          19          63
Real atomic weights                        R   N=           2
  1.89984032E+01  6.29295992E+01
Atom fragment info                         I   N=           2
           0           0
Atom residue num                           I   N=           2
           0           0
Nuclear spins                              I   N=           2
           1           3
Nuclear ZEff                               R   N=           2
 -6.75000000E+00 -2.55200000E+01
Nuclear ZNuc                               R   N=           2
  9.00000000E+00  2.90000000E+01
Nuclear QMom                               R   N=           2
  0.00000000E+00 -2.20000000E+01
Nuclear GFac                               R   N=           2
  2.62886700E+00  2.22330000E+00
MicOpt                                     I   N=           2
          -1          -1
Number of residues                         I                0
Number of secondary structures             I                0
SymInf integers                            I   N=          26
           1           4           1           1           1          -1
          -1           1          -1           1           1           1
          -1           1           0           0           0           0
           0           0           0           0           0           0
           0           0
RotTr to input orientation                 R   N=          12
  1.00000000E+00  0.00000000E+00  0.00000000E+00  0.00000000E+00  1.00000000E+00
  0.00000000E+00  0.00000000E+00  0.00000000E+00  1.00000000E+00  0.00000000E+00
  0.00000000E+00  2.51646722E+00
Number of contracted shells                I               42
Number of primitive shells                 I               62
Pure/Cartesian d shells                    I                0
Pure/Cartesian f shells                    I                0
Highest angular momentum                   I                4
Largest degree of contraction              I                8
Shell types                                I   N=          42
           0           0           0           0           0           1
           1           1          -2          -2           0           0
           0           0           0           0           1           1
           1           1           1           1           1           1
           1           1           1           1           1          -2
          -2          -2          -2          -2          -2          -2
          -2          -2          -2          -3          -3          -4
Number of primitives per shell             I   N=          42
           6           2           1           1           1           4
           1           1           1           1           8           4
           2           1           1           1           1           1
           1           1           1           1           1           1
           1           1           1           1           1           1
           1           1           1           1           1           1
           1           1           1           1           1           1
Shell to atom map                          I   N=          42
           1           1           1           1           1           1
           1           1           1           1           2           2
           2           2           2           2           2           2
           2           2           2           2           2           2
           2           2           2           2           2           2
           2           2           2           2           2           2
           2           2           2           2           2           2
Primitive exponents                        R   N=          62
  3.57216726E+04  5.29373579E+03  1.21212339E+03  3.42912864E+02  1.12426036E+02
  4.09175453E+01  1.62621987E+01  6.65177229E+00  1.55553338E+00  6.17368508E-01
  2.40099830E-01  8.03933379E+01  1.85928659E+01  5.68648476E+00  1.95128460E+00
  6.69829568E-01  2.16500521E-01  3.10700000E+00  8.55000000E-01  7.93381848E+05
  9.75369491E+04  1.94240686E+04  4.99157367E+03  1.51096240E+03  5.14241310E+02
  1.89874461E+02  7.17098879E+01  4.45996619E+02  1.34835399E+02  2.15491043E+01
  9.13594138E+00  1.41838382E+01  2.30902928E+00  9.25969356E-01  1.15768385E-01
  4.10631475E-02  5.81366496E+03  2.61979067E+03  5.65875303E+02  1.73330670E+02
  6.27371860E+01  2.45263259E+01  9.81200444E+00  3.83941131E+01  5.24426900E+00
  2.06180795E+00  7.56400578E-01  2.71100000E-01  9.95400000E-02  1.42892686E+03
  4.91722408E+02  1.69211549E+02  8.42201808E+01  2.31193786E+01  7.87573050E+00
  2.83977750E+00  9.58614410E-01  2.83764836E-01  8.50000000E-02  4.93600000E+00
  1.20900000E+00  3.24500000E+00
Contraction coefficients                   R   N=          62
 -9.24510407E-04 -5.07007873E-03 -2.36707566E-02 -9.31917930E-02 -2.90928267E-01
 -6.75993240E-01 -6.21175884E-01 -4.12885545E-01  1.00000000E+00  1.00000000E+00
  1.00000000E+00  1.24949380E-02  8.59943188E-02  3.26544881E-01  6.99326718E-01
  1.00000000E+00  1.00000000E+00  1.00000000E+00  1.00000000E+00  6.44508909E-04
  2.66499268E-03  1.00731535E-02  3.56456298E-02  1.13039206E-01  2.80928294E-01
  4.47262618E-01  2.65705126E-01 -2.33628393E-02 -1.11347166E-01  5.43485338E-01
  5.41828489E-01 -3.69206789E-01  1.16698956E+00  1.00000000E+00  1.00000000E+00
  1.00000000E+00  1.00000000E+00  1.00000000E+00  1.00000000E+00  1.00000000E+00
  1.00000000E+00  1.00000000E+00  1.00000000E+00  1.00000000E+00  1.00000000E+00
  1.00000000E+00  1.00000000E+00  1.00000000E+00  1.00000000E+00  1.00000000E+00
  1.00000000E+00  1.00000000E+00  1.00000000E+00  1.00000000E+00  1.00000000E+00
  1.00000000E+00  1.00000000E+00  1.00000000E+00  1.00000000E+00  1.00000000E+00
  1.00000000E+00  1.00000000E+00
Coordinates of each shell                  R   N=         126
  0.00000000E+00  0.00000000E+00 -2.51646722E+00  0.00000000E+00  0.00000000E+00
 -2.51646722E+00  0.00000000E+00  0.00000000E+00 -2.51646722E+00  0.00000000E+00
  0.00000000E+00 -2.51646722E+00  0.00000000E+00  0.00000000E+00 -2.51646722E+00
  0.00000000E+00  0.00000000E+00 -2.51646722E+00  0.00000000E+00  0.00000000E+00
 -2.51646722E+00  0.00000000E+00  0.00000000E+00 -2.51646722E+00  0.00000000E+00
  0.00000000E+00 -2.51646722E+00  0.00000000E+00  0.00000000E+00 -2.51646722E+00
  0.00000000E+00  0.00000000E+00  7.80972586E-01  0.00000000E+00  0.00000000E+00
  7.80972586E-01  0.00000000E+00  0.00000000E+00  7.80972586E-01  0.00000000E+00
  0.00000000E+00  7.80972586E-01  0.00000000E+00  0.00000000E+00  7.80972586E-01
  0.00000000E+00  0.00000000E+00  7.80972586E-01  0.00000000E+00  0.00000000E+00
  7.80972586E-01  0.00000000E+00  0.00000000E+00  7.80972586E-01  0.00000000E+00
  0.00000000E+00  7.80972586E-01  0.00000000E+00  0.00000000E+00  7.80972586E-01
  0.00000000E+00  0.00000000E+00  7.80972586E-01  0.00000000E+00  0.00000000E+00
  7.80972586E-01  0.00000000E+00  0.00000000E+00  7.80972586E-01  0.00000000E+00
  0.00000000E+00  7.80972586E-01  0.00000000E+00  0.00000000E+00  7.80972586E-01
  0.00000000E+00  0.00000000E+00  7.80972586E-01  0.00000000E+00  0.00000000E+00
  7.80972586E-01  0.00000000E+00  0.00000000E+00  7.80972586E-01  0.00000000E+00
  0.00000000E+00  7.80972586E-01  0.00000000E+00  0.00000000E+00  7.80972586E-01
  0.00000000E+00  0.00000000E+00  7.80972586E-01  0.00000000E+00  0.00000000E+00
  7.80972586E-01  0.00000000E+00  0.00000000E+00  7.80972586E-01  0.00000000E+00
  0.00000000E+00  7.80972586E-01  0.00000000E+00  0.00000000E+00  7.80972586E-01
  0.00000000E+00  0.00000000E+00  7.80972586E-01  0.00000000E+00  0.00000000E+00
  7.80972586E-01  0.00000000E+00  0.00000000E+00  7.80972586E-01  0.00000000E+00
  0.00000000E+00  7.80972586E-01  0.00000000E+00  0.00000000E+00  7.80972586E-01
  0.00000000E+00  0.00000000E+00  7.80972586E-01  0.00000000E+00  0.00000000E+00
  7.80972586E-01
Num ILSW                                   I              100
ILSW                                       I   N=         100
           0           0           0           0           2           0
           0           0           0           0         402          -1
           5           0           0           0           0           0
           0           0           1           0           0           0
           1           0           0           0           0           0
           0           0      100000           0          -1           0
           0           0           0           0           0           0
           0           0           0           1           0           0
           0 -2000000000           1           0           0           0
           0           0           4          52           0           0
           0           0           3           0           0           0
           0           0           0           0           0           1
           0           0           0           0           0           0
           0           0           0           0           0           0
           0           0           0           0           0           0
           0           0           0           0           0           0
           0           0           0           0
Num RLSW                                   I               52
RLSW                                       R   N=          52
  5.00000000E-01  5.00000000E-01  1.00000000E+00  1.00000000E+00  5.00000000E-01
  0.00000000E+00  0.00000000E+00  1.00000000E+00  0.00000000E+00  0.00000000E+00
  0.00000000E+00  0.00000000E+00  1.00000000E+00  0.00000000E+00  0.00000000E+00
  0.00000000E+00  0.00000000E+00  1.00000000E+00  0.00000000E+00  0.00000000E+00
  0.00000000E+00  0.00000000E+00  1.00000000E+00  0.00000000E+00  0.00000000E+00
  0.00000000E+00  0.00000000E+00  1.00000000E+00  0.00000000E+00  0.00000000E+00
  0.00000000E+00  0.00000000E+00  1.00000000E+00  0.00000000E+00  0.00000000E+00
  0.00000000E+00  0.00000000E+00  0.00000000E+00  1.00000000E+00  1.00000000E+00
  0.00000000E+00  1.00000000E+00  0.00000000E+00  0.00000000E+00  0.00000000E+00
  0.00000000E+00  0.00000000E+00  0.00000000E+00  0.00000000E+00  0.00000000E+00
  0.00000000E+00  0.00000000E+00
MxBond                                     I                1
NBond                                      I   N=           2
           1           1
IBond                                      I   N=           2
           2           1
RBond                                      R   N=           2
  1.00000000E+00  1.00000000E+00
Virial Ratio                               R      1.956474446985278E+00
SCF Energy                                 R     -1.754585299575233E+03
Total Energy                               R     -1.754585299575233E+03
RMS Density                                R      2.753032150009268E-09
Job Status                                 I                1
Nuclear derivative order                   I                0
External E-field                           R   N=          35
  0.00000000E+00  0.00000000E+00  0.00000000E+00  0.00000000E+00  0.00000000E+00
  0.00000000E+00  0.00000000E+00  0.00000000E+00  0.00000000E+00  0.00000000E+00
  0.00000000E+00  0.00000000E+00  0.00000000E+00  0.00000000E+00  0.00000000E+00
  0.00000000E+00  0.00000000E+00  0.00000000E+00  0.00000000E+00  0.00000000E+00
  0.00000000E+00  0.00000000E+00  0.00000000E+00  0.00000000E+00  0.00000000E+00
  0.00000000E+00  0.00000000E+00  0.00000000E+00  0.00000000E+00  0.00000000E+00
  0.00000000E+00  0.00000000E+00  0.00000000E+00  0.00000000E+00  0.00000000E+00
IOpCl                                      I                0
IROHF                                      I                0
Alpha Orbital Energies                     R   N=         142
 -3.28801851E+02 -4.03991235E+01 -3.48026529E+01 -3.48026529E+01 -3.48004856E+01
 -2.52051872E+01 -4.74259912E+00 -3.06834036E+00 -3.06429812E+00 -3.06429812E+00
 -1.19896445E+00 -4.61755362E-01 -4.35476058E-01 -4.35476058E-01 -3.89282962E-01
 -3.89281174E-01 -3.55582765E-01 -3.55582765E-01 -3.33800067E-01 -8.26827416E-02
  6.57384514E-02  6.57384514E-02  1.18205118E-01  1.67048711E-01  2.02950568E-01
  2.02950731E-01  2.29967707E-01  2.29967707E-01  2.68014503E-01  5.95576731E-01
  5.95576732E-01  6.51596395E-01  7.40234034E-01  8.11201306E-01  8.11201306E-01
  9.35724019E-01  9.35725674E-01  9.36817199E-01  9.36817199E-01  1.10141787E+00
  1.18051194E+00  2.16985308E+00  2.16985309E+00  2.25992041E+00  2.25992041E+00
  2.38194574E+00  2.79657230E+00  2.79657230E+00  2.86327267E+00  3.24471629E+00
  3.29488834E+00  3.48543792E+00  3.48543792E+00  3.53149640E+00  3.53149695E+00
  3.53348473E+00  3.53348473E+00  3.64918666E+00  3.64918666E+00  3.75853572E+00
  3.75854637E+00  3.78038556E+00  3.78038556E+00  3.88656984E+00  4.07459234E+00
  4.46658873E+00  8.57919306E+00  8.57919366E+00  8.67883653E+00  8.67883653E+00
  8.98135276E+00  1.11492880E+01  1.11492880E+01  1.12742784E+01  1.32121341E+01
  1.32121544E+01  1.32132786E+01  1.32132786E+01  1.32147259E+01  1.32147259E+01
  1.32168517E+01  1.32170379E+01  1.32221382E+01  1.34224264E+01  1.34224264E+01
  1.34232285E+01  1.34232493E+01  1.34529723E+01  1.34529723E+01  1.35795746E+01
  1.35795918E+01  1.35884599E+01  1.35884599E+01  1.36033367E+01  1.37109669E+01
  3.56416256E+01  3.56416256E+01  3.57431614E+01  4.87573415E+01  4.87573467E+01
  4.87654882E+01  4.87654882E+01  4.88156971E+01  5.75243132E+01  9.70094925E+01
  9.70094925E+01  9.70969630E+01  1.95057819E+02  1.95057820E+02  1.95061668E+02
  1.95061668E+02  1.95089457E+02  2.24989925E+02  2.24989925E+02  2.25065676E+02
  5.17188442E+02  5.17188442E+02  5.17251738E+02  5.98242399E+02  5.98242399E+02
  5.98244324E+02  5.98244324E+02  5.98263698E+02  1.45576185E+03  1.45576185E+03
  1.45580907E+03  1.70583649E+03  1.70583649E+03  1.70583775E+03  1.70583775E+03
  1.70585087E+03  4.85740041E+03  4.85740041E+03  4.85740132E+03  4.85740132E+03
  4.85740895E+03  5.24295218E+03  5.24295218E+03  5.24297977E+03  1.39771151E+04
  1.39771151E+04  1.39771311E+04
Alpha MO coefficients                      R   N=       20164
 -3.08352735E-06  9.07578734E-06  3.87716851E-05 -1.15379885E-04  3.29847423E-04
  0.00000000E+00  0.00000000E+00  2.16139257E-06  0.00000000E+00  0.00000000E+00
  2.61900835E-05  0.00000000E+00  0.00000000E+00  1.07189414E-04  1.54289935E-05
  0.00000000E+00  0.00000000E+00  5.55103103E-16  0.00000000E+00 -1.83599254E-05
  0.00000000E+00  0.00000000E+00  6.13782626E-16  0.00000000E+00  9.96917328E-01
  9.41118628E-03 -3.28880982E-03  2.01749681E-03 -6.59580741E-04  2.29442220E-04
  0.00000000E+00  0.00000000E+00 -1.14968546E-09  0.00000000E+00  0.00000000E+00
  1.04740205E-07  0.00000000E+00  0.00000000E+00  5.53010501E-07  0.00000000E+00
  0.00000000E+00  6.35006313E-06  0.00000000E+00  0.00000000E+00 -6.57680040E-06
  0.00000000E+00  0.00000000E+00 -3.86655045E-05  0.00000000E+00  0.00000000E+00
  4.47693697E-05  0.00000000E+00  0.00000000E+00  3.68294897E-05  0.00000000E+00
  0.00000000E+00 -5.26656048E-05  0.00000000E+00  0.00000000E+00  5.40670004E-05
  0.00000000E+00  0.00000000E+00 -7.65846712E-05  0.00000000E+00  0.00000000E+00
  1.13829289E-04  0.00000000E+00  0.00000000E+00  1.17881508E-04 -3.35655612E-08
  0.00000000E+00  0.00000000E+00 -4.18998878E-17  0.00000000E+00  2.61863601E-07
  0.00000000E+00  0.00000000E+00 -4.61068766E-16  0.00000000E+00  3.40271530E-07
  0.00000000E+00  0.00000000E+00 -2.98454315E-16  0.00000000E+00  2.39007007E-06
  0.00000000E+00  0.00000000E+00 -1.19399652E-15  0.00000000E+00 -3.52584809E-06
  0.00000000E+00  0.00000000E+00  2.82929786E-15  0.00000000E+00  8.78498080E-06
  0.00000000E+00  0.00000000E+00  6.68415878E-15  0.00000000E+00 -1.84318709E-05
  0.00000000E+00  0.00000000E+00  6.71418918E-15  0.00000000E+00  3.55354475E-05
  0.00000000E+00  0.00000000E+00  4.97441668E-15  0.00000000E+00 -9.80397806E-05
  0.00000000E+00  0.00000000E+00  1.81494357E-15  0.00000000E+00 -5.03963655E-05
  0.00000000E+00  0.00000000E+00  9.49734029E-16  0.00000000E+00 -2.92027725E-06
  0.00000000E+00  0.00000000E+00  9.01655911E-17  0.00000000E+00  0.00000000E+00
  0.00000000E+00  9.73875299E-06  0.00000000E+00  0.00000000E+00 -1.19152863E-16
  0.00000000E+00  0.00000000E+00  0.00000000E+00 -1.68608287E-07  0.00000000E+00
  0.00000000E+00  3.35692670E-16  0.00000000E+00  0.00000000E+00  0.00000000E+00
 -4.76237196E-11  0.00000000E+00  6.23479306E-06 -3.42151425E-05 -1.83857900E-04
  5.14420361E-04 -1.45414444E-03  0.00000000E+00  0.00000000E+00 -2.75305951E-05
  0.00000000E+00  0.00000000E+00 -8.36257960E-05  0.00000000E+00  0.00000000E+00
 -4.49349987E-04 -7.86502749E-05  0.00000000E+00  0.00000000E+00  1.13178431E-14
  0.00000000E+00  1.26375568E-04  0.00000000E+00  0.00000000E+00  9.27232738E-15
  0.00000000E+00 -3.27312968E-01  1.03906099E+00  4.02139854E-02 -1.21060504E-02
  3.17300656E-03 -1.11507136E-03  0.00000000E+00  0.00000000E+00  8.23461423E-07
  0.00000000E+00  0.00000000E+00  5.24455719E-06  0.00000000E+00  0.00000000E+00
  4.87058581E-05  0.00000000E+00  0.00000000E+00  2.19157259E-04  0.00000000E+00
  0.00000000E+00  7.17329601E-04  0.00000000E+00  0.00000000E+00  1.35926352E-03
  0.00000000E+00  0.00000000E+00  8.04632916E-04  0.00000000E+00  0.00000000E+00
 -1.51323279E-04  0.00000000E+00  0.00000000E+00  2.23794556E-04  0.00000000E+00
  0.00000000E+00 -1.58055877E-04  0.00000000E+00  0.00000000E+00  2.80307579E-04
  0.00000000E+00  0.00000000E+00 -4.13544888E-04  0.00000000E+00  0.00000000E+00
 -5.59984833E-04 -8.40176433E-08  0.00000000E+00  0.00000000E+00 -2.91662491E-16
  0.00000000E+00  3.14458566E-07  0.00000000E+00  0.00000000E+00 -6.95331801E-15
  0.00000000E+00 -3.11247219E-06  0.00000000E+00  0.00000000E+00 -9.98831086E-15
  0.00000000E+00  4.10554538E-06  0.00000000E+00  0.00000000E+00 -4.62915195E-14
  0.00000000E+00 -3.88449334E-05  0.00000000E+00  0.00000000E+00  3.04911335E-14
  0.00000000E+00 -8.41022961E-05  0.00000000E+00  0.00000000E+00  1.86081764E-13
  0.00000000E+00  8.97762423E-05  0.00000000E+00  0.00000000E+00  1.60789633E-13
  0.00000000E+00 -1.62939923E-04  0.00000000E+00  0.00000000E+00  1.03739386E-13
  0.00000000E+00  3.98935326E-04  0.00000000E+00  0.00000000E+00  1.72938902E-14
  0.00000000E+00  2.47041945E-04  0.00000000E+00  0.00000000E+00 -1.05241646E-14
  0.00000000E+00  7.48174677E-06  0.00000000E+00  0.00000000E+00  6.73905374E-17
  0.00000000E+00  0.00000000E+00  0.00000000E+00 -2.87783873E-05  0.00000000E+00
  0.00000000E+00 -5.69245806E-16  0.00000000E+00  0.00000000E+00  0.00000000E+00
 -8.75115900E-06  0.00000000E+00  0.00000000E+00  1.98832131E-15  0.00000000E+00
  0.00000000E+00  0.00000000E+00 -8.22314657E-10  0.00000000E+00  0.00000000E+00
  0.00000000E+00  0.00000000E+00  0.00000000E+00  0.00000000E+00  0.00000000E+00
  1.35331407E-05  0.00000000E+00  0.00000000E+00 -6.46771587E-05  0.00000000E+00
  0.00000000E+00  3.64798463E-05  0.00000000E+00  0.00000000E+00  0.00000000E+00
  1.11036268E-05  0.00000000E+00  0.00000000E+00  0.00000000E+00  0.00000000E+00
 -5.58717579E-05  0.00000000E+00  0.00000000E+00  0.00000000E+00  0.00000000E+00
  0.00000000E+00  0.00000000E+00  0.00000000E+00  0.00000000E+00  0.00000000E+00
  3.24338630E-04  0.00000000E+00  0.00000000E+00  2.19933514E-03  0.00000000E+00
  0.00000000E+00  1.98640135E-02  0.00000000E+00  0.00000000E+00  9.31521392E-02
  0.00000000E+00  0.00000000E+00  2.83960573E-01  0.00000000E+00  0.00000000E+00
  4.80249216E-01  0.00000000E+00  0.00000000E+00  2.90080493E-01  0.00000000E+00
  0.00000000E+00 -2.62749854E-03  0.00000000E+00  0.00000000E+00  1.61053259E-02
  0.00000000E+00  0.00000000E+00  1.39701953E-02  0.00000000E+00  0.00000000E+00
 -4.74510767E-03  0.00000000E+00  0.00000000E+00  2.25375050E-03  0.00000000E+00
  0.00000000E+00 -7.34720452E-04  0.00000000E+00  0.00000000E+00  0.00000000E+00
 -4.89445326E-09  0.00000000E+00  0.00000000E+00  0.00000000E+00  0.00000000E+00
  6.56394750E-07  0.00000000E+00  0.00000000E+00  0.00000000E+00  0.00000000E+00
  1.21544666E-06  0.00000000E+00  0.00000000E+00  0.00000000E+00  0.00000000E+00
  1.67201604E-05  0.00000000E+00  0.00000000E+00  0.00000000E+00  0.00000000E+00
  1.62676482E-04  0.00000000E+00  0.00000000E+00  0.00000000E+00  0.00000000E+00
  1.72337574E-04  0.00000000E+00  0.00000000E+00  0.00000000E+00  0.00000000E+00
 -1.49373023E-05  0.00000000E+00  0.00000000E+00  0.00000000E+00  0.00000000E+00
  2.51096259E-05  0.00000000E+00  0.00000000E+00  0.00000000E+00  0.00000000E+00
 -2.53984144E-05  0.00000000E+00  0.00000000E+00  0.00000000E+00  0.00000000E+00
  1.73845639E-05  0.00000000E+00  0.00000000E+00  0.00000000E+00  0.00000000E+00
  1.24439805E-05  0.00000000E+00  0.00000000E+00  0.00000000E+00  6.85144675E-09
  0.00000000E+00  0.00000000E+00  1.13694748E-05  0.00000000E+00  0.00000000E+00
  0.00000000E+00 -2.07811505E-09  0.00000000E+00  0.00000000E+00  1.16887581E-07
  0.00000000E+00  0.00000000E+00  0.00000000E+00 -4.84122977E-09  0.00000000E+00
  0.00000000E+00  0.00000000E+00  0.00000000E+00  0.00000000E+00  0.00000000E+00
  0.00000000E+00  1.35331406E-05  0.00000000E+00  0.00000000E+00 -6.46771587E-05
  0.00000000E+00  0.00000000E+00  3.64798464E-05  0.00000000E+00  0.00000000E+00
  0.00000000E+00  1.11036268E-05  0.00000000E+00  0.00000000E+00  0.00000000E+00
  0.00000000E+00 -5.58717579E-05  0.00000000E+00  0.00000000E+00  0.00000000E+00
  0.00000000E+00  0.00000000E+00  0.00000000E+00  0.00000000E+00  0.00000000E+00
  0.00000000E+00  3.24338630E-04  0.00000000E+00  0.00000000E+00  2.19933514E-03
  0.00000000E+00  0.00000000E+00  1.98640135E-02  0.00000000E+00  0.00000000E+00
  9.31521392E-02  0.00000000E+00  0.00000000E+00  2.83960573E-01  0.00000000E+00
  0.00000000E+00  4.80249216E-01  0.00000000E+00  0.00000000E+00  2.90080493E-01
  0.00000000E+00  0.00000000E+00 -2.62749854E-03  0.00000000E+00  0.00000000E+00
  1.61053259E-02  0.00000000E+00  0.00000000E+00  1.39701953E-02  0.00000000E+00
  0.00000000E+00 -4.74510767E-03  0.00000000E+00  0.00000000E+00  2.25375050E-03
  0.00000000E+00  0.00000000E+00 -7.34720451E-04  0.00000000E+00  0.00000000E+00
  0.00000000E+00 -4.89445642E-09  0.00000000E+00  0.00000000E+00  0.00000000E+00
  0.00000000E+00  6.56394742E-07  0.00000000E+00  0.00000000E+00  0.00000000E+00
  0.00000000E+00  1.21544665E-06  0.00000000E+00  0.00000000E+00  0.00000000E+00
  0.00000000E+00  1.67201603E-05  0.00000000E+00  0.00000000E+00  0.00000000E+00
  0.00000000E+00  1.62676482E-04  0.00000000E+00  0.00000000E+00  0.00000000E+00
  0.00000000E+00  1.72337574E-04  0.00000000E+00  0.00000000E+00  0.00000000E+00
  0.00000000E+00 -1.49373023E-05  0.00000000E+00  0.00000000E+00  0.00000000E+00
  0.00000000E+00  2.51096258E-05  0.00000000E+00  0.00000000E+00  0.00000000E+00
  0.00000000E+00 -2.53984145E-05  0.00000000E+00  0.00000000E+00  0.00000000E+00
  0.00000000E+00  1.73845639E-05  0.00000000E+00  0.00000000E+00  0.00000000E+00
  0.00000000E+00  1.24439805E-05  0.00000000E+00  0.00000000E+00  0.00000000E+00
 -6.85141930E-09  0.00000000E+00  0.00000000E+00  1.13694748E-05  0.00000000E+00
  0.00000000E+00  0.00000000E+00  2.07810350E-09  0.00000000E+00  0.00000000E+00
  1.16887581E-07  0.00000000E+00  0.00000000E+00  0.00000000E+00  4.84122995E-09
  0.00000000E+00  0.00000000E+00  0.00000000E+00 -2.49823892E-06  1.46733874E-05
  3.25959593E-05 -2.96660345E-05  5.74261535E-04  0.00000000E+00  0.00000000E+00
  4.64229660E-05  0.00000000E+00  0.00000000E+00  5.67262741E-05  0.00000000E+00
  0.00000000E+00  5.87271170E-04  3.75320679E-05  0.00000000E+00  0.00000000E+00
  9.18285317E-15  0.00000000E+00 -1.29793140E-05  0.00000000E+00  0.00000000E+00
 -3.42258337E-18  0.00000000E+00  8.65031509E-04 -2.78861027E-03 -7.76412578E-05
  1.34689898E-04 -6.77193064E-04  1.84309914E-04  0.00000000E+00  0.00000000E+00
  3.24322028E-04  0.00000000E+00  0.00000000E+00  2.19957073E-03  0.00000000E+00
  0.00000000E+00  1.98646659E-02  0.00000000E+00  0.00000000E+00  9.31624383E-02
  0.00000000E+00  0.00000000E+00  2.83939499E-01  0.00000000E+00  0.00000000E+00
  4.80116501E-01  0.00000000E+00  0.00000000E+00  2.90120117E-01  0.00000000E+00
  0.00000000E+00 -2.48745919E-03  0.00000000E+00  0.00000000E+00  1.59887621E-02
  0.00000000E+00  0.00000000E+00  1.42174244E-02  0.00000000E+00  0.00000000E+00
 -5.15706368E-03  0.00000000E+00  0.00000000E+00  2.89210279E-03  0.00000000E+00
  0.00000000E+00 -6.64661719E-04 -3.70826839E-08  0.00000000E+00  0.00000000E+00
 -9.28869640E-16  0.00000000E+00  8.61463229E-07  0.00000000E+00  0.00000000E+00
 -2.54811441E-15  0.00000000E+00  4.21732873E-07  0.00000000E+00  0.00000000E+00
 -6.77398627E-15  0.00000000E+00  1.94914417E-05  0.00000000E+00  0.00000000E+00
 -2.07829586E-15  0.00000000E+00  1.66488196E-04  0.00000000E+00  0.00000000E+00
  8.62632515E-14  0.00000000E+00  2.13827886E-04  0.00000000E+00  0.00000000E+00
  1.87550979E-13  0.00000000E+00 -6.36174881E-05  0.00000000E+00  0.00000000E+00
  1.34978769E-13  0.00000000E+00  1.48286334E-04  0.00000000E+00  0.00000000E+00
  3.53096458E-14  0.00000000E+00 -4.18967342E-04  0.00000000E+00  0.00000000E+00
 -1.80146982E-14  0.00000000E+00  6.95849149E-05  0.00000000E+00  0.00000000E+00
 -2.34789214E-14  0.00000000E+00 -5.76142328E-05  0.00000000E+00  0.00000000E+00
  2.32097431E-14  0.00000000E+00  0.00000000E+00  0.00000000E+00  3.26386629E-05
  0.00000000E+00  0.00000000E+00 -2.22276307E-15  0.00000000E+00  0.00000000E+00
  0.00000000E+00 -1.20860093E-06  0.00000000E+00  0.00000000E+00  3.07585634E-16
  0.00000000E+00  0.00000000E+00  0.00000000E+00  3.38458277E-09  0.00000000E+00
  4.25145736E-01  6.49625315E-01 -3.10060388E-02  1.58661366E-02 -9.00652938E-03
  0.00000000E+00  0.00000000E+00 -6.46073213E-04  0.00000000E+00  0.00000000E+00
  6.73757953E-04  0.00000000E+00  0.00000000E+00 -1.59474121E-03  2.08079843E-05
  0.00000000E+00  0.00000000E+00 -2.39500234E-15  0.00000000E+00 -1.02243047E-04
  0.00000000E+00  0.00000000E+00 -1.85540751E-14  0.00000000E+00  7.38217327E-06
  3.02566931E-06  1.06213606E-04 -1.74834833E-04  1.82628433E-03  5.27898550E-04
  0.00000000E+00  0.00000000E+00  2.66590010E-08  0.00000000E+00  0.00000000E+00
 -6.40677018E-08  0.00000000E+00  0.00000000E+00  5.00937435E-07  0.00000000E+00
  0.00000000E+00 -2.58453272E-06  0.00000000E+00  0.00000000E+00  2.97314981E-05
  0.00000000E+00  0.00000000E+00  1.05865690E-04  0.00000000E+00  0.00000000E+00
 -1.42515989E-04  0.00000000E+00  0.00000000E+00 -8.64068585E-05  0.00000000E+00
  0.00000000E+00  1.92112849E-04  0.00000000E+00  0.00000000E+00 -1.94986856E-04
  0.00000000E+00  0.00000000E+00  3.33630467E-05  0.00000000E+00  0.00000000E+00
 -2.87755693E-04  0.00000000E+00  0.00000000E+00 -2.05063029E-03  5.98474482E-08
  0.00000000E+00  0.00000000E+00  2.44344856E-16  0.00000000E+00 -3.17776471E-07
  0.00000000E+00  0.00000000E+00  8.09769286E-15  0.00000000E+00  1.66252399E-06
  0.00000000E+00  0.00000000E+00  1.00145976E-14  0.00000000E+00 -3.56001743E-06
  0.00000000E+00  0.00000000E+00  4.45443869E-14  0.00000000E+00  1.26553329E-05
  0.00000000E+00  0.00000000E+00 -8.63391507E-15  0.00000000E+00 -4.98044798E-05
  0.00000000E+00  0.00000000E+00 -2.18490237E-13  0.00000000E+00  1.16624393E-04
  0.00000000E+00  0.00000000E+00 -2.78320565E-13  0.00000000E+00 -1.38632103E-04
  0.00000000E+00  0.00000000E+00 -2.50826296E-13  0.00000000E+00  2.43424636E-04
  0.00000000E+00  0.00000000E+00 -2.12227138E-13  0.00000000E+00  9.55550122E-04
  0.00000000E+00  0.00000000E+00 -1.47747645E-13  0.00000000E+00 -4.02309815E-05
  0.00000000E+00  0.00000000E+00 -8.96519733E-16  0.00000000E+00  0.00000000E+00
  0.00000000E+00  1.62566997E-04  0.00000000E+00  0.00000000E+00 -3.44814152E-15
  0.00000000E+00  0.00000000E+00  0.00000000E+00 -2.05182889E-05  0.00000000E+00
  0.00000000E+00  3.56741995E-16  0.00000000E+00  0.00000000E+00  0.00000000E+00
 -6.82575660E-12  0.00000000E+00  1.23547919E-04  2.10742001E-04 -5.19983910E-04