[Molden Format]
[Title]
 Generated by Molden2AIM, Version 5.1.1 (03/09/2024)           Time: Tue Jun 04 16:39:58 2024

[Atoms] AU
  Fe     1   26        0.0062927880        0.0001133836       -0.0000188973
  C      2    6        3.4238436040       -0.0005291233        0.0003212534
  C      3    6       -1.7310647277        2.9422280015        0.0001133836
  C      4    6       -1.7310269332       -2.9419445425       -0.0004535343
  C      5    6        0.0229223780        0.0000944863       -3.4262057616
  C      6    6        0.0237349602        0.0003590480        3.4261490698
  O      7    8        5.6028490145       -0.0014361919        0.0009637603
  O      8    8       -2.8477416948        4.8130568741        0.0001322808
  O      9    8       -2.8475149276       -4.8128867987       -0.0009448631
  O     10    8        0.0380212898        0.0000755890       -5.5956491579
  O     11    8        0.0396842488        0.0008503768        5.5955924661
[GTO]
    1    0
 S    1  1.0
    0.4081031999D+08    0.1000000000D+01
 S    1  1.0
    0.8811908928D+07    0.1000000000D+01
 S    1  1.0
    0.1902698606D+07    0.1000000000D+01
 S    1  1.0
    0.5686715852D+06    0.1000000000D+01
 S    1  1.0
    0.7138169285D+05    0.1000000000D+01
 S    1  1.0
    0.1448426932D+05    0.1000000000D+01
 S    1  1.0
    0.3781864976D+04    0.1000000000D+01
 S    1  1.0
    0.1159581402D+04    0.1000000000D+01
 S    1  1.0
    0.3980167733D+03    0.1000000000D+01
 S    1  1.0
    0.1479728741D+03    0.1000000000D+01
 S    1  1.0
    0.5618729934D+02    0.1000000000D+01
 S    1  1.0
    0.3482904043D+03    0.1000000000D+01
 S    1  1.0
    0.1058462345D+03    0.1000000000D+01
 S    1  1.0
    0.1683871945D+02    0.1000000000D+01
 S    1  1.0
    0.7113078114D+01    0.1000000000D+01
 S    1  1.0
    0.1073236181D+02    0.1000000000D+01
 S    1  1.0
    0.1776587289D+01    0.1000000000D+01
 S    1  1.0
    0.7462990075D+00    0.1000000000D+01
 S    1  1.0
    0.1195431489D+00    0.1000000000D+01
 S    1  1.0
    0.4314489680D-01    0.1000000000D+01
 P    1  1.0
    0.6925146568D+04    0.1000000000D+01
 P    1  1.0
    0.1913676590D+04    0.1000000000D+01
 P    1  1.0
    0.4215599419D+03    0.1000000000D+01
 P    1  1.0
    0.1304737973D+03    0.1000000000D+01
 P    1  1.0
    0.4751113558D+02    0.1000000000D+01
 P    1  1.0
    0.1859939947D+02    0.1000000000D+01
 P    1  1.0
    0.7449618761D+01    0.1000000000D+01
 P    1  1.0
    0.2860536077D+02    0.1000000000D+01
 P    1  1.0
    0.3942787186D+01    0.1000000000D+01
 P    1  1.0
    0.1569952999D+01    0.1000000000D+01
 P    1  1.0
    0.5929839866D+00    0.1000000000D+01
 P    1  1.0
    0.2204000000D+00    0.1000000000D+01
 P    1  1.0
    0.8338000000D-01    0.1000000000D+01
 D    1  1.0
    0.1472922851D+04    0.1000000000D+01
 D    1  1.0
    0.5035817700D+03    0.1000000000D+01
 D    1  1.0
    0.1721709992D+03    0.1000000000D+01
 D    1  1.0
    0.6412045177D+02    0.1000000000D+01
 D    1  1.0
    0.1838949865D+02    0.1000000000D+01
 D    1  1.0
    0.6419360113D+01    0.1000000000D+01
 D    1  1.0
    0.2396591936D+01    0.1000000000D+01
 D    1  1.0
    0.8637471259D+00    0.1000000000D+01
 D    1  1.0
    0.2795554046D+00    0.1000000000D+01
 D    1  1.0
    0.9100000000D-01    0.1000000000D+01
 F    1  1.0
    0.3465000000D+01    0.1000000000D+01
 F    1  1.0
    0.8430000000D+00    0.1000000000D+01
 G    1  1.0
    0.2128000000D+01    0.1000000000D+01

    2    0
 S    6  1.0
    0.1360286722D+05   -0.8054627436D-03
    0.2025637344D+04   -0.5026796798D-02
    0.4639123100D+03   -0.2472410820D-01
    0.1308221520D+03   -0.9832450792D-01
    0.4292392382D+02   -0.3007393204D+00
    0.1558152513D+02   -0.6626840822D+00
 S    2  1.0
    0.6289239253D+01   -0.6375068043D+00
    0.2657230240D+01   -0.3937191085D+00
 S    1  1.0
    0.5780774240D+00    0.1000000000D+01
 S    1  1.0
    0.2298998570D+00    0.1000000000D+01
 S    1  1.0
    0.9516077420D-01    0.1000000000D+01
 P    4  1.0
    0.3470703849D+02    0.1139572901D-01
    0.7955898785D+01    0.7631808150D-01
    0.2379171554D+01    0.3021072373D+00
    0.8143935949D+00    0.7276262062D+00
 P    1  1.0
    0.2889777900D+00    0.1000000000D+01
 P    1  1.0
    0.1005896821D+00    0.1000000000D+01
 D    1  1.0
    0.1097000000D+01    0.1000000000D+01
 D    1  1.0
    0.3180000000D+00    0.1000000000D+01

    3    0
 S    6  1.0
    0.1360286722D+05   -0.8054627436D-03
    0.2025637344D+04   -0.5026796798D-02
    0.4639123100D+03   -0.2472410820D-01
    0.1308221520D+03   -0.9832450792D-01
    0.4292392382D+02   -0.3007393204D+00
    0.1558152513D+02   -0.6626840822D+00
 S    2  1.0
    0.6289239253D+01   -0.6375068043D+00
    0.2657230240D+01   -0.3937191085D+00
 S    1  1.0
    0.5780774240D+00    0.1000000000D+01
 S    1  1.0
    0.2298998570D+00    0.1000000000D+01
 S    1  1.0
    0.9516077420D-01    0.1000000000D+01
 P    4  1.0
    0.3470703849D+02    0.1139572901D-01
    0.7955898785D+01    0.7631808150D-01
    0.2379171554D+01    0.3021072373D+00
    0.8143935949D+00    0.7276262062D+00
 P    1  1.0
    0.2889777900D+00    0.1000000000D+01
 P    1  1.0
    0.1005896821D+00    0.1000000000D+01
 D    1  1.0
    0.1097000000D+01    0.1000000000D+01
 D    1  1.0
    0.3180000000D+00    0.1000000000D+01

    4    0
 S    6  1.0
    0.1360286722D+05   -0.8054627436D-03
    0.2025637344D+04   -0.5026796798D-02
    0.4639123100D+03   -0.2472410820D-01
    0.1308221520D+03   -0.9832450792D-01
    0.4292392382D+02   -0.3007393204D+00
    0.1558152513D+02   -0.6626840822D+00
 S    2  1.0
    0.6289239253D+01   -0.6375068043D+00
    0.2657230240D+01   -0.3937191085D+00
 S    1  1.0
    0.5780774240D+00    0.1000000000D+01
 S    1  1.0
    0.2298998570D+00    0.1000000000D+01
 S    1  1.0
    0.9516077420D-01    0.1000000000D+01
 P    4  1.0
    0.3470703849D+02    0.1139572901D-01
    0.7955898785D+01    0.7631808150D-01
    0.2379171554D+01    0.3021072373D+00
    0.8143935949D+00    0.7276262062D+00
 P    1  1.0
    0.2889777900D+00    0.1000000000D+01
 P    1  1.0
    0.1005896821D+00    0.1000000000D+01
 D    1  1.0
    0.1097000000D+01    0.1000000000D+01
 D    1  1.0
    0.3180000000D+00    0.1000000000D+01

    5    0
 S    6  1.0
    0.1360286722D+05   -0.8054627436D-03
    0.2025637344D+04   -0.5026796798D-02
    0.4639123100D+03   -0.2472410820D-01
    0.1308221520D+03   -0.9832450792D-01
    0.4292392382D+02   -0.3007393204D+00
    0.1558152513D+02   -0.6626840822D+00
 S    2  1.0
    0.6289239253D+01   -0.6375068043D+00
    0.2657230240D+01   -0.3937191085D+00
 S    1  1.0
    0.5780774240D+00    0.1000000000D+01
 S    1  1.0
    0.2298998570D+00    0.1000000000D+01
 S    1  1.0
    0.9516077420D-01    0.1000000000D+01
 P    4  1.0
    0.3470703849D+02    0.1139572901D-01
    0.7955898785D+01    0.7631808150D-01
    0.2379171554D+01    0.3021072373D+00
    0.8143935949D+00    0.7276262062D+00
 P    1  1.0
    0.2889777900D+00    0.1000000000D+01
 P    1  1.0
    0.1005896821D+00    0.1000000000D+01
 D    1  1.0
    0.1097000000D+01    0.1000000000D+01
 D    1  1.0
    0.3180000000D+00    0.1000000000D+01

    6    0
 S    6  1.0
    0.1360286722D+05   -0.8054627436D-03
    0.2025637344D+04   -0.5026796798D-02
    0.4639123100D+03   -0.2472410820D-01
    0.1308221520D+03   -0.9832450792D-01
    0.4292392382D+02   -0.3007393204D+00
    0.1558152513D+02   -0.6626840822D+00
 S    2  1.0
    0.6289239253D+01   -0.6375068043D+00
    0.2657230240D+01   -0.3937191085D+00
 S    1  1.0
    0.5780774240D+00    0.1000000000D+01
 S    1  1.0
    0.2298998570D+00    0.1000000000D+01
 S    1  1.0
    0.9516077420D-01    0.1000000000D+01
 P    4  1.0
    0.3470703849D+02    0.1139572901D-01
    0.7955898785D+01    0.7631808150D-01
    0.2379171554D+01    0.3021072373D+00
    0.8143935949D+00    0.7276262062D+00
 P    1  1.0
    0.2889777900D+00    0.1000000000D+01
 P    1  1.0
    0.1005896821D+00    0.1000000000D+01
 D    1  1.0
    0.1097000000D+01    0.1000000000D+01
 D    1  1.0
    0.3180000000D+00    0.1000000000D+01

    7    0
 S    6  1.0
    0.2712972370D+05   -0.8784674166D-03
    0.4027093019D+04   -0.5006376688D-02
    0.9224174897D+03   -0.2379280864D-01
    0.2604637393D+03   -0.9418434875D-01
    0.8546181861D+02   -0.2930128345D+00
    0.3103245062D+02   -0.6734172292D+00
 S    2  1.0
    0.1239274285D+02   -0.6247743351D+00
    0.5119804549D+01   -0.4084521706D+00
 S    1  1.0
    0.1176403130D+01    0.1000000000D+01
 S    1  1.0
    0.4654613844D+00    0.1000000000D+01
 S    1  1.0
    0.1850087120D+00    0.1000000000D+01
 P    4  1.0
    0.6334752355D+02    0.1215068675D-01
    0.1462468470D+02    0.8322611473D-01
    0.4449159942D+01    0.3200979683D+00
    0.1527786679D+01    0.7068189643D+00
 P    1  1.0
    0.5294345837D+00    0.1000000000D+01
 P    1  1.0
    0.1747910545D+00    0.1000000000D+01
 D    1  1.0
    0.2314000000D+01    0.1000000000D+01
 D    1  1.0
    0.6450000000D+00    0.1000000000D+01

    8    0
 S    6  1.0
    0.2712972370D+05   -0.8784674166D-03
    0.4027093019D+04   -0.5006376688D-02
    0.9224174897D+03   -0.2379280864D-01
    0.2604637393D+03   -0.9418434875D-01
    0.8546181861D+02   -0.2930128345D+00
    0.3103245062D+02   -0.6734172292D+00
 S    2  1.0
    0.1239274285D+02   -0.6247743351D+00
    0.5119804549D+01   -0.4084521706D+00
 S    1  1.0
    0.1176403130D+01    0.1000000000D+01
 S    1  1.0
    0.4654613844D+00    0.1000000000D+01
 S    1  1.0
    0.1850087120D+00    0.1000000000D+01
 P    4  1.0
    0.6334752355D+02    0.1215068675D-01
    0.1462468470D+02    0.8322611473D-01
    0.4449159942D+01    0.3200979683D+00
    0.1527786679D+01    0.7068189643D+00
 P    1  1.0
    0.5294345837D+00    0.1000000000D+01
 P    1  1.0
    0.1747910545D+00    0.1000000000D+01
 D    1  1.0
    0.2314000000D+01    0.1000000000D+01
 D    1  1.0
    0.6450000000D+00    0.1000000000D+01

    9    0
 S    6  1.0
    0.2712972370D+05   -0.8784674166D-03
    0.4027093019D+04   -0.5006376688D-02
    0.9224174897D+03   -0.2379280864D-01
    0.2604637393D+03   -0.9418434875D-01
    0.8546181861D+02   -0.2930128345D+00
    0.3103245062D+02   -0.6734172292D+00
 S    2  1.0
    0.1239274285D+02   -0.6247743351D+00
    0.5119804549D+01   -0.4084521706D+00
 S    1  1.0
    0.1176403130D+01    0.1000000000D+01
 S    1  1.0
    0.4654613844D+00    0.1000000000D+01
 S    1  1.0
    0.1850087120D+00    0.1000000000D+01
 P    4  1.0
    0.6334752355D+02    0.1215068675D-01
    0.1462468470D+02    0.8322611473D-01
    0.4449159942D+01    0.3200979683D+00
    0.1527786679D+01    0.7068189643D+00
 P    1  1.0
    0.5294345837D+00    0.1000000000D+01
 P    1  1.0
    0.1747910545D+00    0.1000000000D+01
 D    1  1.0
    0.2314000000D+01    0.1000000000D+01
 D    1  1.0
    0.6450000000D+00    0.1000000000D+01

   10    0
 S    6  1.0
    0.2712972370D+05   -0.8784674166D-03
    0.4027093019D+04   -0.5006376688D-02
    0.9224174897D+03   -0.2379280864D-01
    0.2604637393D+03   -0.9418434875D-01
    0.8546181861D+02   -0.2930128345D+00
    0.3103245062D+02   -0.6734172292D+00
 S    2  1.0
    0.1239274285D+02   -0.6247743351D+00
    0.5119804549D+01   -0.4084521706D+00
 S    1  1.0
    0.1176403130D+01    0.1000000000D+01
 S    1  1.0
    0.4654613844D+00    0.1000000000D+01
 S    1  1.0
    0.1850087120D+00    0.1000000000D+01
 P    4  1.0
    0.6334752355D+02    0.1215068675D-01
    0.1462468470D+02    0.8322611473D-01
    0.4449159942D+01    0.3200979683D+00
    0.1527786679D+01    0.7068189643D+00
 P    1  1.0
    0.5294345837D+00    0.1000000000D+01
 P    1  1.0
    0.1747910545D+00    0.1000000000D+01
 D    1  1.0
    0.2314000000D+01    0.1000000000D+01
 D    1  1.0
    0.6450000000D+00    0.1000000000D+01

   11    0
 S    6  1.0
    0.2712972370D+05   -0.8784674166D-03
    0.4027093019D+04   -0.5006376688D-02
    0.9224174897D+03   -0.2379280864D-01
    0.2604637393D+03   -0.9418434875D-01
    0.8546181861D+02   -0.2930128345D+00
    0.3103245062D+02   -0.6734172292D+00
 S    2  1.0
    0.1239274285D+02   -0.6247743351D+00
    0.5119804549D+01   -0.4084521706D+00
 S    1  1.0
    0.1176403130D+01    0.1000000000D+01
 S    1  1.0
    0.4654613844D+00    0.1000000000D+01
 S    1  1.0
    0.1850087120D+00    0.1000000000D+01
 P    4  1.0
    0.6334752355D+02    0.1215068675D-01
    0.1462468470D+02    0.8322611473D-01
    0.4449159942D+01    0.3200979683D+00
    0.1527786679D+01    0.7068189643D+00
 P    1  1.0
    0.5294345837D+00    0.1000000000D+01
 P    1  1.0
    0.1747910545D+00    0.1000000000D+01
 D    1  1.0
    0.2314000000D+01    0.1000000000D+01
 D    1  1.0
    0.6450000000D+00    0.1000000000D+01

[MO]
 Sym= 1A
 Ene=       -260.35340516
 Spin= Alpha
 Occup=        2.00000000
    1       -0.0000174404
    2       -0.0000702073
    3       -0.0000828919
    4       -0.0006261670
    5       -0.0029721998
    6       -0.0103808636
    7       -0.0361591311
    8       -0.1150333157
    9       -0.2661459881
   10       -0.4097908744
   11       -0.2399228124
   12       -0.0247020246
   13       -0.0403263471
   14       -0.0171589595
   15        0.0009314570
   16        0.0029209250
   17       -0.0004085739
   18        0.0002860540
   19       -0.0002892669
   20       -0.0000089465
   21       -0.0000000001
   22       -0.0000000000
   23       -0.0000000000
   24       -0.0000000000
   25       -0.0000000000
   26        0.0000000001
   27       -0.0000000060
   28       -0.0000000002
   29       -0.0000000005
   30       -0.0000000156
   31       -0.0000000006
   32        0.0000000018
   33       -0.0000000627
   34       -0.0000000010
   35       -0.0000000060
   36       -0.0000001301
   37       -0.0000000020
   38       -0.0000000061
   39        0.0000001266
   40        0.0000000021
   41        0.0000000017
   42        0.0000001233
   43        0.0000000022
   44        0.0000000098
   45       -0.0000001437
   46       -0.0000000024
   47       -0.0000000006
   48        0.0000001007
   49        0.0000000020
   50       -0.0000000002
   51        0.0000003624
   52        0.0000000031
   53        0.0000000011
   54       -0.0000040359
   55       -0.0000000538
   56       -0.0000000041
   57        0.0000003359
   58        0.0000000954
   59        0.0000000011
   60        0.0000000052
   61        0.0000000059
   62       -0.0000000111
   63        0.0000000000
   64       -0.0000000000
   65       -0.0000000000
   66        0.0000000555
   67        0.0000000582
   68       -0.0000001137
   69       -0.0000000000
   70       -0.0000000000
   71       -0.0000000000
   72        0.0000006161
   73        0.0000006752
   74       -0.0000012913
   75        0.0000000002
   76       -0.0000000005
   77       -0.0000000002
   78        0.0000022466
   79        0.0000024400
   80       -0.0000046866
   81        0.0000000004
   82       -0.0000000016
   83       -0.0000000006
   84        0.0000009076
   85        0.0000010190
   86       -0.0000019267
   87        0.0000000005
   88       -0.0000000009
   89       -0.0000000004
   90       -0.0000011802
   91       -0.0000013761
   92        0.0000025563
   93       -0.0000000012
   94        0.0000000017
   95        0.0000000009
   96        0.0000020684
   97        0.0000024367
   98       -0.0000045051
   99        0.0000000025
  100       -0.0000000033
  101       -0.0000000017
  102       -0.0000058028
  103       -0.0000066369
  104        0.0000124397
  105       -0.0000000060
  106        0.0000000072
  107        0.0000000035
  108        0.0000468007
  109        0.0000504963
  110       -0.0000972970
  111        0.0000000326
  112       -0.0000000263
  113       -0.0000000092
  114        0.0000359632
  115        0.0000354833
  116       -0.0000714464
  117       -0.0000000344
  118       -0.0000000176
  119       -0.0000000069
  120        0.0000002514
  121        0.0000000002
  122       -0.0000000000
  123       -0.0000003476
  124       -0.0000000000
  125        0.0000000002
  126        0.0000000104
  127       -0.0000000002
  128       -0.0000000002
  129       -0.0000000001
  130        0.0000017874
  131       -0.0000000004
  132        0.0000000001
  133       -0.0000023992
  134       -0.0000000003
  135       -0.0000000009
  136        0.0000000012
  137        0.0000000009
  138        0.0000000008
  139        0.0000000001
  140       -0.0000004231
  141       -0.0000004024
  142       -0.0000010707
  143        0.0000000000
  144        0.0000000003
  145        0.0000000002
  146        0.0000000002
  147       -0.0000000005
  148       -0.0000000002
  149       -0.0000002153
  150        0.0000009586
  151        0.0000009223
  152        0.0000000001
  153        0.0000000002
  154       -0.0000000003
  155       -0.0000000381
  156        0.0000000508
  157        0.0000109580
  158       -0.0000543366
  159       -0.0000477081
  160       -0.0000016376
  161        0.0000000011
  162        0.0000000008
  163       -0.0000441426
  164        0.0000000149
  165       -0.0000000106
  166       -0.0000024994
  167        0.0000000001
  168        0.0000000014
  169        0.0000002482
  170       -0.0000005901
  171        0.0000003419
  172       -0.0000000005
  173       -0.0000000015
  174       -0.0000000001
  175       -0.0000359551
  176        0.0000171227
  177        0.0000188324
  178        0.0000000256
  179       -0.0000000160
  180        0.0000000005
  181       -0.0000000492
  182        0.0000000894
  183        0.0000122795
  184       -0.0000599397
  185       -0.0000469947
  186        0.0000009347
  187       -0.0000015052
  188        0.0000000001
  189        0.0000217978
  190       -0.0000367396
  191       -0.0000000007
  192        0.0000012000
  193       -0.0000023005
  194       -0.0000000002
  195       -0.0000003483
  196        0.0000000301
  197        0.0000003182
  198       -0.0000004437
  199       -0.0000000001
  200       -0.0000000002
  201        0.0000032104
  202       -0.0000231712
  203        0.0000199607
  204        0.0000286983
  205        0.0000000020
  206       -0.0000000007
  207       -0.0000000494
  208        0.0000000903
  209        0.0000123039
  210       -0.0000600367
  211       -0.0000468387
  212        0.0000009354
  213        0.0000015077
  214       -0.0000000009
  215        0.0000217856
  216        0.0000367231
  217        0.0000000085
  218        0.0000012270
  219        0.0000023444
  220       -0.0000000023
  221       -0.0000003485
  222        0.0000000306
  223        0.0000003179
  224        0.0000004436
  225       -0.0000000008
  226       -0.0000000013
  227        0.0000032223
  228       -0.0000232031
  229        0.0000199808
  230       -0.0000287230
  231       -0.0000000069
  232       -0.0000000131
  233        0.0000006859
  234       -0.0000021980
  235       -0.0000272259
  236        0.0000823976
  237        0.0001109324
  238        0.0000000305
  239       -0.0000000002
  240       -0.0000023402
  241       -0.0000004601
  242        0.0000000004
  243        0.0000838556
  244       -0.0000005859
  245       -0.0000000104
  246        0.0000516906
  247        0.0000002995
  248        0.0000002841
  249       -0.0000005836
  250        0.0000000002
  251        0.0000000405
  252       -0.0000000002
  253       -0.0000082669
  254       -0.0000083280
  255        0.0000165949
  256       -0.0000000014
  257       -0.0000001486
  258        0.0000000012
  259        0.0000006859
  260       -0.0000021979
  261       -0.0000272253
  262        0.0000823973
  263        0.0001109337
  264        0.0000000322
  265        0.0000000004
  266        0.0000023399
  267       -0.0000004839
  268       -0.0000000094
  269       -0.0000838590
  270       -0.0000005903
  271       -0.0000000090
  272       -0.0000516909
  273        0.0000003007
  274        0.0000002830
  275       -0.0000005836
  276       -0.0000000006
  277       -0.0000000427
  278       -0.0000000012
  279       -0.0000082701
  280       -0.0000083243
  281        0.0000165944
  282        0.0000000008
  283        0.0000001531
  284       -0.0000000012
  285        0.0000003762
  286       -0.0000011829
  287       -0.0000102535
  288        0.0000489044
  289        0.0000457822
  290        0.0000031339
  291       -0.0000000013
  292        0.0000000010
  293       -0.0000280429
  294        0.0000000113
  295       -0.0000000087
  296       -0.0000111261
  297        0.0000000083
  298       -0.0000000060
  299       -0.0000000526
  300        0.0000000056
  301        0.0000000470
  302        0.0000000005
  303       -0.0000000004
  304        0.0000000000
  305        0.0000034733
  306       -0.0000016333
  307       -0.0000018400
  308       -0.0000000038
  309        0.0000000030
  310       -0.0000000001
  311        0.0000003854
  312       -0.0000012117
  313       -0.0000105173
  314        0.0000506454
  315        0.0000464321
  316       -0.0000016055
  317        0.0000027279
  318       -0.0000000001
  319        0.0000146013
  320       -0.0000246650
  321        0.0000000002
  322        0.0000059299
  323       -0.0000097560
  324        0.0000000005
  325       -0.0000000110
  326       -0.0000000343
  327        0.0000000453
  328        0.0000000202
  329        0.0000000000
  330        0.0000000002
  331       -0.0000003052
  332        0.0000021587
  333       -0.0000018535
  334       -0.0000025851
  335       -0.0000000000
  336       -0.0000000006
  337        0.0000003856
  338       -0.0000012123
  339       -0.0000105225
  340        0.0000506787
  341        0.0000464460
  342       -0.0000016059
  343       -0.0000027286
  344       -0.0000000005
  345        0.0000146070
  346        0.0000246767
  347        0.0000000058
  348        0.0000059287
  349        0.0000097589
  350        0.0000000042
  351       -0.0000000110
  352       -0.0000000341
  353        0.0000000451
  354       -0.0000000200
  355        0.0000000000
  356       -0.0000000001
  357       -0.0000003054
  358        0.0000021589
  359       -0.0000018535
  360        0.0000025852
  361        0.0000000005
  362        0.0000000013
  363        0.0000003006
  364       -0.0000009357
  365       -0.0000070593
  366        0.0000171460
  367        0.0000171917
  368        0.0000000222
  369        0.0000000001
  370       -0.0000025552
  371       -0.0000001174
  372       -0.0000000000
  373        0.0000151864
  374        0.0000000778
  375        0.0000000026
  376       -0.0000012343
  377        0.0000001283
  378        0.0000001254
  379       -0.0000002537
  380       -0.0000000002
  381        0.0000000033
  382       -0.0000000001
  383       -0.0000018913
  384       -0.0000018805
  385        0.0000037718
  386        0.0000000006
  387       -0.0000000391
  388        0.0000000004
  389        0.0000003007
  390       -0.0000009358
  391       -0.0000070601
  392        0.0000171484
  393        0.0000171925
  394        0.0000000227
  395        0.0000000003
  396        0.0000025554
  397       -0.0000001208
  398       -0.0000000014
  399       -0.0000151876
  400        0.0000000750
  401       -0.0000000002
  402        0.0000012339
  403        0.0000001279
  404        0.0000001259
  405       -0.0000002538
  406        0.0000000001
  407       -0.0000000034
  408       -0.0000000001
  409       -0.0000018902
  410       -0.0000018819
  411        0.0000037721
  412       -0.0000000003
  413        0.0000000407
  414        0.0000000007
 Sym= 1A
 Ene=        -31.28119360
 Spin= Alpha
 Occup=        2.00000000
    1        0.0000053537
    2        0.0000215779
    3        0.0000254142
    4        0.0001927500
    5        0.0009155818
    6        0.0032366062
    7        0.0113574706
    8        0.0385459973
    9        0.0748747439
   10        0.1462190313
   11        0.0915797514
   12        0.0410802687
   13        0.1043763020
   14       -0.5640094196
   15       -0.5793481805
   16        0.0292864742
   17       -0.0478294160
   18        0.0163613784
   19       -0.0120638526
   20       -0.0002696812
   21       -0.0000000014
   22        0.0000000000
   23        0.0000000001
   24       -0.0000000087
   25        0.0000000002
   26       -0.0000000006
   27       -0.0000000992
   28        0.0000000012
   29        0.0000000051
   30       -0.0000003096
   31        0.0000000072
   32       -0.0000000271
   33       -0.0000019825
   34        0.0000000072
   35        0.0000001219
   36       -0.0000051244
   37       -0.0000000107
   38       -0.0000000095
   39        0.0000020886
   40        0.0000000834
   41        0.0000001686
   42        0.0000025490
   43        0.0000000304
   44       -0.0000001407
   45       -0.0000048684
   46       -0.0000000744
   47       -0.0000001873
   48        0.0000040185
   49        0.0000000712
   50        0.0000001022
   51        0.0000145804
   52        0.0000001378
   53       -0.0000000353
   54       -0.0001711266
   55       -0.0000022875
   56       -0.0000001612
   57        0.0000120827
   58        0.0000040405
   59       -0.0000000783
   60        0.0000000341
   61        0.0000000391
   62       -0.0000000732
   63        0.0000000000
   64       -0.0000000000
   65       -0.0000000000
   66       -0.0000000361
   67       -0.0000000499
   68        0.0000000859
   69       -0.0000000001
   70        0.0000000001
   71        0.0000000001
   72        0.0000010792
   73        0.0000012180
   74       -0.0000022972
   75        0.0000000008
   76       -0.0000000011
   77       -0.0000000005
   78        0.0000034693
   79        0.0000036154
   80       -0.0000070847
   81       -0.0000000012
   82       -0.0000000011
   83       -0.0000000001
   84        0.0001072577
   85        0.0001170598
   86       -0.0002243175
   87        0.0000000323
   88       -0.0000000798
   89       -0.0000000293
   90        0.0000848959
   91        0.0000892104
   92       -0.0001741063
   93       -0.0000000120
   94       -0.0000000283
   95       -0.0000000009
   96        0.0000601081
   97        0.0000729610
   98       -0.0001330692
   99        0.0000000963
  100       -0.0000001198
  101       -0.0000000644
  102       -0.0002302337
  103       -0.0002649441
  104        0.0004951778
  105       -0.0000002595
  106        0.0000003076
  107        0.0000001519
  108        0.0019094471
  109        0.0020629352
  110       -0.0039723824
  111        0.0000013851
  112       -0.0000010658
  113       -0.0000003639
  114        0.0016634524
  115        0.0016418025
  116       -0.0033052550
  117       -0.0000014647
  118       -0.0000008155
  119       -0.0000003233
  120       -0.0000224839
  121        0.0000000017
  122        0.0000000003
  123        0.0000302632
  124        0.0000000028
  125        0.0000000082
  126       -0.0000000979
  127       -0.0000000051
  128       -0.0000000086
  129       -0.0000000008
  130        0.0001049871
  131       -0.0000000131
  132       -0.0000000021
  133       -0.0001416635
  134       -0.0000000208
  135       -0.0000000306
  136        0.0000008085
  137        0.0000000384
  138        0.0000000335
  139        0.0000000007
  140        0.0000086488
  141        0.0000088852
  142        0.0000257844
  143       -0.0000000047
  144        0.0000000067
  145        0.0000000133
  146        0.0000000115
  147       -0.0000000101
  148       -0.0000000152
  149        0.0000072464
  150       -0.0000224390
  151       -0.0000228543
  152        0.0000000050
  153        0.0000000046
  154       -0.0000000116
  155       -0.0000017896
  156        0.0000113161
  157        0.0006368985
  158       -0.0028328348
  159       -0.0024095053
  160       -0.0001007900
  161        0.0000000529
  162        0.0000000319
  163       -0.0020902880
  164        0.0000007285
  165       -0.0000005151
  166       -0.0000627563
  167       -0.0000000158
  168        0.0000000547
  169        0.0000105798
  170       -0.0000229233
  171        0.0000123435
  172       -0.0000000199
  173       -0.0000000629
  174       -0.0000000036
  175       -0.0018080835
  176        0.0008622534
  177        0.0009458301
  178        0.0000012300
  179       -0.0000007678
  180        0.0000000233
  181       -0.0000020879
  182        0.0000127407
  183        0.0006936203
  184       -0.0030737119
  185       -0.0023778536
  186        0.0000555834
  187       -0.0000909219
  188        0.0000000020
  189        0.0010376975
  190       -0.0017469832
  191       -0.0000000341
  192        0.0000288039
  193       -0.0000617585
  194       -0.0000000031
  195       -0.0000131184
  196        0.0000018163
  197        0.0000113021
  198       -0.0000177975
  199       -0.0000000045
  200       -0.0000000070
  201        0.0001633123
  202       -0.0011578482
  203        0.0009945358
  204        0.0014307153
  205        0.0000000914
  206       -0.0000000377
  207       -0.0000020934
  208        0.0000127687
  209        0.0006946333
  210       -0.0030776831
  211       -0.0023711651
  212        0.0000556037
  213        0.0000910183
  214       -0.0000000331
  215        0.0010370814
  216        0.0017461675
  217        0.0000004037
  218        0.0000299895
  219        0.0000636665
  220       -0.0000000956
  221       -0.0000131313
  222        0.0000018389
  223        0.0000112923
  224        0.0000177920
  225       -0.0000000339
  226       -0.0000000508
  227        0.0001638317
  228       -0.0011591833
  229        0.0009953516
  230       -0.0014317043
  231       -0.0000003347
  232       -0.0000006278
  233        0.0000163799
  234       -0.0000670407
  235       -0.0009436978
  236        0.0028478560
  237        0.0049504137
  238        0.0000011161
  239       -0.0000000115
  240       -0.0000675722
  241       -0.0000203837
  242        0.0000000227
  243        0.0036765523
  244       -0.0000263559
  245       -0.0000004664
  246        0.0023260245