[Molden Format]
[Title]
 Molden2AIM, Version 5.0.2 (10/09/2020)           Time: Sat Oct 17 10:07:02 2020

[Atoms] AU
  Fe     1   26        0.0000188973        0.0000094486       -0.0000000000
  F      2    9        3.7373264929        0.0000377945       -0.0000132281
  F      3    9       -3.7374474353        0.0000377945        0.0000151178
  F      4    9        0.0000264562        3.7373453901       -0.0000018897
  F      5    9        0.0000264562       -3.7374058614       -0.0000000000
  F      6    9        0.0000094486       -0.0000132281        3.7373642874
  F      7    9        0.0000396842       -0.0000113384       -3.7373642874
[GTO]
    1    0
 S    1  1.0
    0.9771223093D+08    0.1000000000D+01
 S    1  1.0
    0.2345836548D+08    0.1000000000D+01
 S    1  1.0
    0.6171732321D+07    0.1000000000D+01
 S    1  1.0
    0.1779413697D+07    0.1000000000D+01
 S    1  1.0
    0.5686715852D+06    0.1000000000D+01
 S    1  1.0
    0.7138169285D+05    0.1000000000D+01
 S    1  1.0
    0.1448426932D+05    0.1000000000D+01
 S    1  1.0
    0.3781864976D+04    0.1000000000D+01
 S    1  1.0
    0.1159581402D+04    0.1000000000D+01
 S    1  1.0
    0.3980167733D+03    0.1000000000D+01
 S    1  1.0
    0.1479728741D+03    0.1000000000D+01
 S    1  1.0
    0.5618729934D+02    0.1000000000D+01
 S    1  1.0
    0.3482904043D+03    0.1000000000D+01
 S    1  1.0
    0.1058462345D+03    0.1000000000D+01
 S    1  1.0
    0.1683871945D+02    0.1000000000D+01
 S    1  1.0
    0.7113078114D+01    0.1000000000D+01
 S    1  1.0
    0.1073236181D+02    0.1000000000D+01
 S    1  1.0
    0.1776587289D+01    0.1000000000D+01
 S    1  1.0
    0.7462990075D+00    0.1000000000D+01
 S    1  1.0
    0.1195431489D+00    0.1000000000D+01
 S    1  1.0
    0.4314489680D-01    0.1000000000D+01
 P    1  1.0
    0.6925146568D+04    0.1000000000D+01
 P    6  1.0
    0.1913676590D+04    0.2710802003D-02
    0.4215599419D+03    0.2068832822D-01
    0.1304737973D+03    0.9792859805D-01
    0.4751113558D+02    0.2895413457D+00
    0.1859939947D+02    0.4814264753D+00
    0.7449618761D+01    0.2916698170D+00
 P    3  1.0
    0.2860536077D+02   -0.1974612802D-01
    0.3942787186D+01    0.3813687712D+00
    0.1569952999D+01    0.6794911299D+00
 P    1  1.0
    0.5929839866D+00    0.1000000000D+01
 P    1  1.0
    0.2204000000D+00    0.1000000000D+01
 P    1  1.0
    0.8338000000D-01    0.1000000000D+01
 D    4  1.0
    0.6412045177D+02    0.1876993089D-01
    0.1838949865D+02    0.1158182890D+00
    0.6419360113D+01    0.3727830764D+00
    0.2396591936D+01    0.6564490492D+00
 D    1  1.0
    0.8637471259D+00    0.1000000000D+01
 D    1  1.0
    0.2795554046D+00    0.1000000000D+01
 D    1  1.0
    0.9100000000D-01    0.1000000000D+01
 F    1  1.0
    0.3465000000D+01    0.1000000000D+01
 F    1  1.0
    0.8430000000D+00    0.1000000000D+01
 G    1  1.0
    0.2128000000D+01    0.1000000000D+01

    2    0
 S    6  1.0
    0.3572167262D+05   -0.9245104071D-03
    0.5293735790D+04   -0.5070078727D-02
    0.1212123390D+04   -0.2367075656D-01
    0.3429128636D+03   -0.9319179296D-01
    0.1124260358D+03   -0.2909282673D+00
    0.4091754528D+02   -0.6759932401D+00
 S    2  1.0
    0.1626219874D+02   -0.6211758846D+00
    0.6651772291D+01   -0.4128855453D+00
 S    1  1.0
    0.1555533379D+01    0.1000000000D+01
 S    1  1.0
    0.6173685080D+00    0.1000000000D+01
 S    1  1.0
    0.2400998300D+00    0.1000000000D+01
 P    4  1.0
    0.8039333786D+02    0.1249493795D-01
    0.1859286589D+02    0.8599431883D-01
    0.5686484762D+01    0.3265448807D+00
    0.1951284604D+01    0.6993267175D+00
 P    1  1.0
    0.6698295681D+00    0.1000000000D+01
 P    1  1.0
    0.2165005206D+00    0.1000000000D+01
 D    1  1.0
    0.3107000000D+01    0.1000000000D+01
 D    1  1.0
    0.8550000000D+00    0.1000000000D+01

    3    0
 S    6  1.0
    0.3572167262D+05   -0.9245104071D-03
    0.5293735790D+04   -0.5070078727D-02
    0.1212123390D+04   -0.2367075656D-01
    0.3429128636D+03   -0.9319179296D-01
    0.1124260358D+03   -0.2909282673D+00
    0.4091754528D+02   -0.6759932401D+00
 S    2  1.0
    0.1626219874D+02   -0.6211758846D+00
    0.6651772291D+01   -0.4128855453D+00
 S    1  1.0
    0.1555533379D+01    0.1000000000D+01
 S    1  1.0
    0.6173685080D+00    0.1000000000D+01
 S    1  1.0
    0.2400998300D+00    0.1000000000D+01
 P    4  1.0
    0.8039333786D+02    0.1249493795D-01
    0.1859286589D+02    0.8599431883D-01
    0.5686484762D+01    0.3265448807D+00
    0.1951284604D+01    0.6993267175D+00
 P    1  1.0
    0.6698295681D+00    0.1000000000D+01
 P    1  1.0
    0.2165005206D+00    0.1000000000D+01
 D    1  1.0
    0.3107000000D+01    0.1000000000D+01
 D    1  1.0
    0.8550000000D+00    0.1000000000D+01

    4    0
 S    6  1.0
    0.3572167262D+05   -0.9245104071D-03
    0.5293735790D+04   -0.5070078727D-02
    0.1212123390D+04   -0.2367075656D-01
    0.3429128636D+03   -0.9319179296D-01
    0.1124260358D+03   -0.2909282673D+00
    0.4091754528D+02   -0.6759932401D+00
 S    2  1.0
    0.1626219874D+02   -0.6211758846D+00
    0.6651772291D+01   -0.4128855453D+00
 S    1  1.0
    0.1555533379D+01    0.1000000000D+01
 S    1  1.0
    0.6173685080D+00    0.1000000000D+01
 S    1  1.0
    0.2400998300D+00    0.1000000000D+01
 P    4  1.0
    0.8039333786D+02    0.1249493795D-01
    0.1859286589D+02    0.8599431883D-01
    0.5686484762D+01    0.3265448807D+00
    0.1951284604D+01    0.6993267175D+00
 P    1  1.0
    0.6698295681D+00    0.1000000000D+01
 P    1  1.0
    0.2165005206D+00    0.1000000000D+01
 D    1  1.0
    0.3107000000D+01    0.1000000000D+01
 D    1  1.0
    0.8550000000D+00    0.1000000000D+01

    5    0
 S    6  1.0
    0.3572167262D+05   -0.9245104071D-03
    0.5293735790D+04   -0.5070078727D-02
    0.1212123390D+04   -0.2367075656D-01
    0.3429128636D+03   -0.9319179296D-01
    0.1124260358D+03   -0.2909282673D+00
    0.4091754528D+02   -0.6759932401D+00
 S    2  1.0
    0.1626219874D+02   -0.6211758846D+00
    0.6651772291D+01   -0.4128855453D+00
 S    1  1.0
    0.1555533379D+01    0.1000000000D+01
 S    1  1.0
    0.6173685080D+00    0.1000000000D+01
 S    1  1.0
    0.2400998300D+00    0.1000000000D+01
 P    4  1.0
    0.8039333786D+02    0.1249493795D-01
    0.1859286589D+02    0.8599431883D-01
    0.5686484762D+01    0.3265448807D+00
    0.1951284604D+01    0.6993267175D+00
 P    1  1.0
    0.6698295681D+00    0.1000000000D+01
 P    1  1.0
    0.2165005206D+00    0.1000000000D+01
 D    1  1.0
    0.3107000000D+01    0.1000000000D+01
 D    1  1.0
    0.8550000000D+00    0.1000000000D+01

    6    0
 S    6  1.0
    0.3572167262D+05   -0.9245104071D-03
    0.5293735790D+04   -0.5070078727D-02
    0.1212123390D+04   -0.2367075656D-01
    0.3429128636D+03   -0.9319179296D-01
    0.1124260358D+03   -0.2909282673D+00
    0.4091754528D+02   -0.6759932401D+00
 S    2  1.0
    0.1626219874D+02   -0.6211758846D+00
    0.6651772291D+01   -0.4128855453D+00
 S    1  1.0
    0.1555533379D+01    0.1000000000D+01
 S    1  1.0
    0.6173685080D+00    0.1000000000D+01
 S    1  1.0
    0.2400998300D+00    0.1000000000D+01
 P    4  1.0
    0.8039333786D+02    0.1249493795D-01
    0.1859286589D+02    0.8599431883D-01
    0.5686484762D+01    0.3265448807D+00
    0.1951284604D+01    0.6993267175D+00
 P    1  1.0
    0.6698295681D+00    0.1000000000D+01
 P    1  1.0
    0.2165005206D+00    0.1000000000D+01
 D    1  1.0
    0.3107000000D+01    0.1000000000D+01
 D    1  1.0
    0.8550000000D+00    0.1000000000D+01

    7    0
 S    6  1.0
    0.3572167262D+05   -0.9245104071D-03
    0.5293735790D+04   -0.5070078727D-02
    0.1212123390D+04   -0.2367075656D-01
    0.3429128636D+03   -0.9319179296D-01
    0.1124260358D+03   -0.2909282673D+00
    0.4091754528D+02   -0.6759932401D+00
 S    2  1.0
    0.1626219874D+02   -0.6211758846D+00
    0.6651772291D+01   -0.4128855453D+00
 S    1  1.0
    0.1555533379D+01    0.1000000000D+01
 S    1  1.0
    0.6173685080D+00    0.1000000000D+01
 S    1  1.0
    0.2400998300D+00    0.1000000000D+01
 P    4  1.0
    0.8039333786D+02    0.1249493795D-01
    0.1859286589D+02    0.8599431883D-01
    0.5686484762D+01    0.3265448807D+00
    0.1951284604D+01    0.6993267175D+00
 P    1  1.0
    0.6698295681D+00    0.1000000000D+01
 P    1  1.0
    0.2165005206D+00    0.1000000000D+01
 D    1  1.0
    0.3107000000D+01    0.1000000000D+01
 D    1  1.0
    0.8550000000D+00    0.1000000000D+01

[MO]
 Sym= 1A
 Ene=       -263.26777350
 Spin= Alpha
 Occup=        2.00000000
    1        0.0000000978
    2        0.0000001886
    3        0.0000009904
    4        0.0000004687
    5        0.0000071782
    6        0.0000329785
    7        0.0001170314
    8        0.0004102258
    9        0.0013927908
   10        0.0026956300
   11        0.0053081759
   12        0.0033106416
   13        0.0014908976
   14        0.0037276811
   15       -0.0200970624
   16       -0.0200714493
   17        0.0014098192
   18       -0.0043152157
   19       -0.0010139402
   20       -0.0015531577
   21        0.0000829302
   22        0.0001991210
   23        0.0000100936
   24       -0.0000003028
   25        0.9086441943
   26        0.0457120014
   27       -0.0010411314
   28        0.1481057342
   29        0.0115661796
   30       -0.0045877041
   31        0.0299568065
   32        0.0028873057
   33       -0.0011856627
   34        0.0024871697
   35        0.0013700126
   36        0.0006533724
   37       -0.0023585731
   38        0.0007511951
   39        0.0001963767
   40        0.0001009251
   41        0.0002488427
   42       -0.0003497678
   43        0.0019375476
   44        0.0007177113
   45        0.0005425445
   46        0.0000806320
   47        0.0002320996
   48       -0.0003127316
   49        0.0015613888
   50        0.0005783723
   51        0.0004372122
   52        0.0002190569
   53        0.0005604926
   54       -0.0007795496
   55        0.0014132741
   56        0.0005235032
   57        0.0003957286
   58       -0.0000093043
   59        0.0004379524
   60       -0.0004286481
   61        0.0020418092
   62        0.0007563131
   63        0.0005717200
   64        0.0000524965
   65        0.0000028414
   66       -0.0000011927
   67       -0.0000352142
   68       -0.0000019056
   69        0.0000008010
   70       -0.0000352172
   71       -0.0000019066
   72        0.0000007991
   73        0.0000000001
   74        0.0006014161
   75        0.0002129033
   76        0.0001856565
   77       -0.0004034131
   78       -0.0001427935
   79       -0.0001245287
   80       -0.0004034713
   81       -0.0001428463
   82       -0.0001245556
   83        0.0000000000
   84       -0.0000062695
   85       -0.0000039246
   86       -0.0000167782
   87        0.0000060284
   88        0.0000022317
   89        0.0000060252
   90        0.0000016879
   91        0.0000022333
   92        0.0000016874
   93       -0.0000057829
   94        0.0000167960
   95        0.0000126768
   96       -0.0000045284
   97       -0.0000059905
   98       -0.0000161716
   99       -0.0011532723
  100        0.0028162362
  101        0.0169204708
  102        0.0232967929
  103        0.0132346116
  104        0.0022346313
  105        0.0119204527
  106        0.0035066586
  107        0.0014094094
  108        0.0103443719
  109        0.0030511538
  110        0.0016711816
  111        0.0072643821
  112        0.0020661281
  113       -0.0000025894
  114        0.0000045183
  115       -0.0000019289
  116       -0.0000341399
  117       -0.0000132267
  118        0.0000019272
  119        0.0003560368
  120       -0.0001857309
  121       -0.0001703060
  122       -0.0001681226
  123       -0.0000361870
  124        0.0000030484
  125       -0.0123925222
  126       -0.0234287071
  127       -0.0155911397
  128       -0.0232453261
  129       -0.0122736849
  130        0.0017841814
  131       -0.0081438292
  132       -0.0039253157
  133        0.0009532877
  134       -0.0070736534
  135       -0.0034006238
  136        0.0015949549
  137       -0.0049816095
  138       -0.0024698784
  139        0.0000003380
  140        0.0000030539
  141       -0.0000033919
  142       -0.0000142716
  143       -0.0000047057
  144        0.0000019270
  145       -0.0003675728
  146        0.0001760756
  147        0.0001914973
  148       -0.0001323518
  149       -0.0000751096
  150        0.0000030491
  151        0.0387705111
  152        0.0630597972
  153        0.0111795824
  154        0.0201434080
  155        0.0087017153
  156        0.0016584272
  157       -0.0000462286
  158        0.0025992978
  159        0.0014715281
  160       -0.0004961714
  161        0.0022634624
  162        0.0005612556
  163        0.0004743312
  164        0.0015123178
  165        0.0000005635
  166        0.0000026537
  167       -0.0000032171
  168       -0.0000495083
  169        0.0000025493
  170       -0.0000110377
  171       -0.0001154775
  172        0.0002230723
  173       -0.0001075948
  174        0.0000416665
  175        0.0000040305
  176       -0.0000225921
  177        0.0394311394
  178        0.0585405491
  179       -0.0089672578
  180       -0.0089155761
  181       -0.0048299245
  182       -0.0184057325
  183       -0.0009733740
  184       -0.0030188392
  185       -0.0159463746
  186       -0.0010769943
  187       -0.0026137049
  188       -0.0116846961
  189       -0.0003001700
  190       -0.0019166453
  191        0.0000014140
  192        0.0000009510
  193       -0.0000023650
  194        0.0000010965
  195        0.0000025492
  196       -0.0000025176
  197        0.0000800999
  198       -0.0001680800
  199        0.0000879801
  200       -0.0003421356
  201        0.0000040301
  202       -0.0000615459
  203       -0.0261902962
  204       -0.0400290429
  205        0.0018503469
  206       -0.0004302134
  207        0.0010523050
  208       -0.0046584437
  209        0.0046967907
  210        0.0005234253
  211       -0.0040122061
  212        0.0040734201
  213        0.0004434873
  214       -0.0032942102
  215        0.0028555298
  216        0.0001184513
  217        0.0000044394
  218        0.0000071056
  219       -0.0000115450
  220        0.0000068826
  221       -0.0000342676
  222       -0.0000167107
  223       -0.0000116462
  224       -0.0000191836
  225        0.0000308298
  226        0.0000108798
  227        0.0001362737
  228       -0.0000599273
  229       -0.0142472866
  230       -0.0268564876
  231       -0.0175413679
  232       -0.0267695453
  233       -0.0122533532
  234       -0.0120904515
  235       -0.0009213317
  236        0.0013112904
  237       -0.0104640161
  238       -0.0008037424
  239        0.0005644698
  240       -0.0078302336
  241       -0.0005734207
  242        0.0016514945
  243       -0.0000021879
  244        0.0000004794
  245        0.0000017085
  246        0.0000068824
  247        0.0000163354
  248        0.0000031557
  249        0.0001293420
  250        0.0001217953
  251       -0.0002511373
  252        0.0000108785
  253       -0.0002475744
  254       -0.0000242156
 Sym= 1A
 Ene=        -32.13471216
 Spin= Alpha
 Occup=        2.00000000
    1        0.0000000978
    2        0.0000001893
    3        0.0000009891
    4        0.0000004752
    5        0.0000071490
    6        0.0000328051
    7        0.0001132330
    8        0.0003908471
    9        0.0011339593
   10        0.0033736947
   11        0.0037892601
   12        0.0019520691
   13       -0.0013529314
   14       -0.0039017147
   15        0.0259388485
   16        0.0257975933
   17        0.0007892314
   18       -0.0045415927
   19       -0.0049254750
   20        0.0043193354
   21        0.0002373195
   22       -0.0000315440
   23        0.0000009785
   24       -0.0000008044
   25       -0.1458909722
   26        0.0087895702
   27       -0.0058713696
   28        0.0009101909
   29       -0.0525549694
   30        0.0265020451
   31        0.0023665730
   32       -0.0156831613
   33        0.0080088626
   34       -0.0016386695
   35       -0.0015726888
   36        0.0008096168
   37       -0.0010647786
   38       -0.0016219527
   39        0.0003256979
   40        0.0001738523
   41        0.0004477402
   42       -0.0006215925
   43        0.0004705081
   44        0.0014895700
   45        0.0004853841
   46        0.0000977929
   47        0.0005109124
   48       -0.0006087053
   49        0.0003791630
   50        0.0012003807
   51        0.0003911488
   52        0.0003518326
   53        0.0010663604
   54       -0.0014181930
   55        0.0003431696
   56        0.0010864935
   57        0.0003540383
   58       -0.0005797114
   59        0.0020711126
   60       -0.0014914011
   61        0.0004958773
   62        0.0015696669
   63        0.0005114836
   64       -0.0000001933
   65       -0.0000137049
   66        0.0000051603
   67        0.0000001297
   68        0.0000091929
   69       -0.0000034612
   70        0.0000001296
   71        0.0000091941
   72       -0.0000034620
   73       -0.0000000003
   74        0.0000272400
   75       -0.0002121143
   76        0.0002509313
   77       -0.0000182635
   78        0.0001423051
   79       -0.0001683065
   80       -0.0000182828
   81        0.0001422761
   82       -0.0001683531
   83        0.0000000000
   84        0.0000315107
   85        0.0000293872
   86        0.0000135772
   87        0.0000014624
   88        0.0000046327
   89        0.0000014644
   90        0.0000015103
   91        0.0000046342
   92        0.0000015093
   93       -0.0000415623
   94       -0.0000137901
   95       -0.0000100598
   96       -0.0000040513
   97       -0.0000124327
   98       -0.0000039267
   99       -0.0883980261
  100       -0.1324328955
  101        0.0159196353
  102        0.0131277072
  103        0.0089071002
  104        0.0019621276
  105       -0.0024867398
  106        0.0086192229
  107        0.0015218640
  108       -0.0021498342
  109        0.0074858533
  110        0.0015010746
  111       -0.0016316006
  112        0.0052529628
  113       -0.0000006574
  114        0.0000107272
  115       -0.0000100698
  116        0.0000067188
  117       -0.0000241609
  118        0.0000017238
  119        0.0001245258
  120       -0.0000921422
  121       -0.0000323836
  122        0.0000670756
  123       -0.0001373088
  124        0.0000027236
  125       -0.0355076970
  126       -0.0519410452
  127        0.0108475641
  128        0.0123694481
  129        0.0053250675
  130        0.0018485806
  131       -0.0073593990
  132       -0.0068055138
  133        0.0018221798
  134       -0.0063798254
  135       -0.0059045390
  136        0.0003453896
  137       -0.0046056459
  138       -0.0041613302
  139        0.0000066830
  140        0.0000070575
  141       -0.0000137405
  142       -0.0000184711
  143       -0.0000130570
  144        0.0000017241
  145        0.0001446686
  146       -0.0001022150
  147       -0.0000424536
  148       -0.0001400318
  149       -0.0000936977
  150        0.0000027283
  151        0.2452956449
  152        0.3776156853
  153       -0.0070799241
  154        0.0162631797
  155        0.0013612720
  156       -0.0014361318
  157        0.0040095320
  158        0.0034194531
  159       -0.0012183068
  160        0.0030220234
  161        0.0029718695
  162       -0.0009698967
  163        0.0034438975
  164        0.0020793460
  165        0.0000064108
  166       -0.0000053596
  167       -0.0000010512
  168        0.0000065866
  169        0.0000052910
  170       -0.0000116155
  171        0.0000306988
  172       -0.0000780553
  173        0.0000473565
  174        0.0000041332
  175        0.0000083648
  176       -0.0000594218
  177        0.2887766830
  178        0.4490524062
  179        0.0078411240
  180        0.0431325971
  181        0.0119289677
  182       -0.0063090058
  183        0.0026014371
  184       -0.0016067942
  185       -0.0054485032
  186        0.0034761456
  187       -0.0013914757
  188       -0.0039440516
  189       -0.0000068895
  190       -0.0009883568
  191       -0.0000172397
  192        0.0000419395
  193       -0.0000246998
  194       -0.0000183415
  195        0.0000052904
  196       -0.0000005124
  197       -0.0002384766
  198        0.0004603027
  199       -0.0002218260
  200       -0.0000771132
  201        0.0000083652
  202       -0.0000158549
  203       -0.1407468408
  204       -0.2143530614
  205        0.0124685741
  206        0.0030130854
  207        0.0047363843
  208        0.0038395421
  209       -0.0024102655
  210       -0.0014696634
  211        0.0033615783
  212       -0.0020834363
  213       -0.0013374739
  214        0.0022500000
  215       -0.0015849605
  216       -0.0008946403
  217       -0.0000060337
  218        0.0000073018
  219       -0.0000012681
  220        0.0000016713
  221       -0.0000061443
  222        0.0000065318
  223       -0.0000693448
  224       -0.0001124525
  225        0.0001817973
  226        0.0000026433
  227       -0.0000748776
  228        0.0000659257
  229       -0.0765407645
  230       -0.1220332909
  231       -0.0131370092
  232       -0.0268487887
  233       -0.0113711864
  234       -0.0115851752
  235       -0.0074364907
  236        0.0006421660
  237       -0.0100287964
  238       -0.0064467659
  239       -0.0000534723
  240       -0.0071642721
  241       -0.0046526499
  242        0.0008845774
  243       -0.0000026823
  244        0.0000106533
  245       -0.0000079710
  246        0.0000016711
  247       -0.0000310721
  248       -0.0000186592
  249        0.0001614548
  250        0.0001183455
  251       -0.0002798003
  252        0.0000026430
  253       -0.0001561285
  254       -0.0001412056
 Sym= 1A
 Ene=        -27.20266695
 Spin= Alpha
 Occup=        2.00000000
    1       -0.0000009297
    2       -0.0000017887
    3       -0.0000094266
    4       -0.0000044110
    5       -0.0000684553
    6       -0.0003146626
    7       -0.0011383790
    8       -0.0040251961
    9       -0.0149777420
   10       -0.0200694041
   11       -0.0584845699
   12       -0.0386597532
   13       -0.0344039778
   14       -0.0890130470
   15        0.4983139862
   16        0.5014987079
   17        0.0219700980
   18       -0.1004000387
   19       -0.0949745910
   20        0.0139839846
   21        0.0008260202
   22        0.0000253973
   23       -0.0000560204
   24        0.0000066610
   25        0.1297745144
   26       -0.2739050510
   27        0.0471613441
   28       -0.1522817077
   29        0.1848058482
   30       -0.2039697601
   31       -0.0469878745
   32        0.0582465624
   33       -0.0597489680
   34       -0.0039341992
   35       -0.0010227556
   36        0.0055888675
   37       -0.0044051030
   38        0.0003490491
   39        0.0034358581
   40       -0.0000959142
   41        0.0014841959
   42       -0.0013882816
   43       -0.0021539306
   44       -0.0002141338
   45       -0.0010510977
   46       -0.0000740961
   47        0.0012664155
   48       -0.0011923194
   49       -0.0017357682
   50       -0.0001725569
   51       -0.0008470323
   52       -0.0002062862
   53        0.0032703107
   54       -0.0030640245
   55       -0.0015710757
   56       -0.0001562286
   57       -0.0007667006
   58        0.0000440000
   59        0.0009868949
   60       -0.0010308949
   61       -0.0022696319
   62       -0.0002257872
   63       -0.0011076628
   64       -0.0000370480
   65        0.0000470231
   66       -0.0000640439
   67        0.0000248525
   68       -0.0000315433
   69        0.0000429604
   70        0.0000248525
   71       -0.0000315448
   72        0.0000429635
   73        0.0000000009
   74       -0.0006293947
   75        0.0005087769
   76        0.0001369362
   77        0.0004222045
   78       -0.0003413186
   79       -0.0000918562
   80        0.0004222171
   81       -0.0003412773
   82       -0.0000918630
   83        0.0000000040
   84        0.0000984401
   85        0.0001371434
   86        0.0000678601
   87       -0.0000066996
   88       -0.0000006629
   89       -0.0000067008
   90       -0.0000032674
   91       -0.0000006695
   92       -0.0000032728
   93       -0.0001473132
   94       -0.0000256087
   95       -0.0000935957
   96        0.0000087746
   97        0.0000017876
   98        0.0000179784
   99       -0.0010105093
  100       -0.0035533192
  101       -0.0071182040
  102       -0.0096348563
  103       -0.0062449021
  104        0.0103795898
  105       -0.0102018059
  106        0.0097300388
  107        0.0094818001
  108       -0.0088078396
  109        0.0083567701
  110        0.0075684032
  111       -0.0061272431
  112        0.0060563233
  113       -0.0000399128
  114        0.0000304937
  115        0.0000094191
  116        0.0000313946
  117       -0.0000300130
  118       -0.0000037341
  119       -0.0006963432
  120        0.0003282817
  121        0.0003680615
  122        0.0000022978
  123        0.0000103496
  124       -0.0000059050
  125        0.0534588071
  126        0.0943458173
  127        0.0418840214
  128        0.0686606419
  129        0.0267737981
  130        0.0082757973
  131        0.0121009320
  132        0.0119491096
  133        0.0088698706
  134        0.0105533765
  135        0.0102831127
  136        0.0023430526
  137        0.0074849786
  138        0.0074109062
  139        0.0000965126
  140       -0.0000377215
  141       -0.0000587910
  142        0.0000224106
  143        0.0000353672
  144       -0.0000037334
  145        0.0009001725
  146       -0.0004699704
  147       -0.0004302021
  148        0.0003316632
  149        0.0000228613
  150       -0.0000059067
  151       -0.0437947412
  152       -0.0484986834
  153        0.0700311611
  154        0.0972759285
  155        0.0452600213
  156       -0.0248560677
  157       -0.0014476515
  158        0.0053970858
  159       -0.0215568884
  160       -0.0032387673
  161        0.0045952774
  162       -0.0155206213
  163        0.0021066108
  164        0.0034118072
  165       -0.0000453053
  166        0.0001008616
  167       -0.0000555563
  168        0.0000578750
  169       -0.0000007612
  170       -0.0000195582
  171       -0.0005344965
  172        0.0010484269
  173       -0.0005139304
  174        0.0004758452
  175       -0.0000012020
  176        0.0000752387
  177        0.0493631501
  178        0.0852712971
  179        0.0323815652
  180        0.0534440451
  181        0.0197255045
  182       -0.0025523788
  183       -0.0077734823
  184        0.0162820886
  185       -0.0021947633
  186       -0.0059858320
  187        0.0140446431
  188       -0.0019079139
  189       -0.0084701740
  190        0.0100554343
  191        0.0000167734
  192       -0.0000232951
  193        0.0000065217
  194       -0.0000040565
  195       -0.0000007610
  196        0.0000458221
  197        0.0000448588
  198       -0.0001102735
  199        0.0000654148
  200       -0.0001417843
  201       -0.0000012035
  202        0.0000877650
  203       -0.0264172286
  204       -0.0371872072
  205        0.0131631289
  206        0.0187954639
  207        0.0039240600
  208       -0.0148136089
  209       -0.0044924420
  210        0.0008317396
  211       -0.0128388753
  212       -0.0038514577
  213        0.0003003334
  214       -0.0093914358
  215       -0.0026426809
  216        0.0030227859
  217        0.0000170731
  218        0.0000278954
  219       -0.0000449685
  220       -0.0000076506
  221        0.0000336418
  222        0.0000176217
  223        0.0000576897
  224        0.0000384849
  225       -0.0000961746
  226       -0.0000120970
  227        0.0003254204
  228       -0.0000832066
  229        0.0359777872
  230        0.0477193286
  231       -0.0291452850
  232       -0.0369910086
  233       -0.0187169811
  234       -0.0125943804
  235        0.0063926805
  236        0.0022520429
  237       -0.0109123450
  238        0.0055980314
  239        0.0013724347
  240       -0.0080368808
  241        0.0040009807
  242        0.0023427122
  243       -0.0000460120
  244       -0.0000351897
  245        0.0000812018
  246       -0.0000076506
  247       -0.0000282919
  248        0.0000086412
  249        0.0001591095
  250        0.0001398942
  251       -0.0002990037
  252       -0.0000120987
  253       -0.0002921705
  254        0.0002462311
 Sym= 1A
 Ene=        -27.20266691
 Spin= Alpha
 Occup=        2.00000000
    1       -0.0000003559
    2       -0.0000006852
    3       -0.0000036082
    4       -0.0000016925
    5       -0.0000261919
    6       -0.0001203908
    7       -0.0004338384
    8       -0.0015318491
    9       -0.0056000541
   10       -0.0081981550
   11       -0.0219404837
   12       -0.0143603335
   13       -0.0115049640
   14       -0.0296592489
   15        0.1648317888
   16        0.1629697946
   17       -0.0020635616
   18        0.0194765885
   19        0.0017185679
   20       -0.0364754089
   21       -0.0000379396
   22       -0.0000061639
   23        0.0000063593
   24       -0.0000207274
   25       -0.0392337892
   26        0.0383564268
   27       -0.0989484988
   28        0.1322937310
   29       -0.1106049459
   30        0.0409661439
   31        0.0396895795
   32       -0.0335323823
   33        0.0121403064
   34        0.0037680055
   35       -0.0017975805
   36       -0.0115553706
   37        0.0038347480
   38       -0.0004915726
   39       -0.0086245738
   40       -0.0005672966
   41       -0.0053021784
   42        0.0058694750
   43       -0.0015945528
   44       -0.0008543636
   45        0.0002524325
   46       -0.0004880567
   47       -0.0045601845
   48        0.0050482413
   49       -0.0012849736
   50       -0.0006884930
   51        0.0002034270
   52       -0.0012529180
   53       -0.0117054467
   54        0.0129583647
   55       -0.0011630644